
     Program PWSCF v.7.4 starts on  1Jan2025 at 19:36:37 

     This program is part of the open-source Quantum ESPRESSO suite
     for quantum simulation of materials; please cite
         "P. Giannozzi et al., J. Phys.:Condens. Matter 21 395502 (2009);
         "P. Giannozzi et al., J. Phys.:Condens. Matter 29 465901 (2017);
         "P. Giannozzi et al., J. Chem. Phys. 152 154105 (2020);
          URL http://www.quantum-espresso.org", 
     in publications or presentations arising from this work. More details at
     http://www.quantum-espresso.org/quote

     Parallel version (MPI & OpenMP), running on     256 processor cores
     Number of MPI processes:               256
     Threads/MPI process:                     1

     MPI processes distributed on     2 nodes
     231173 MiB available memory on the printing compute node when the environment starts

     Reading input from espresso.pwi
Warning: card &CELL ignored
Warning: card    PRESS_CONV_THR   = 0.1 ignored
Warning: card    CELL_DOFREE      = 'ALL' ignored
Warning: card / ignored
Warning: card &FCP ignored
Warning: card / ignored
Warning: card &RISM ignored
Warning: card / ignored

     Current dimensions of program PWSCF are:
     Max number of different atomic species (ntypx) = 10
     Max number of k-points (npk) =  40000
     Max angular momentum in pseudopotentials (lmaxx) =  4

     IMPORTANT: XC functional enforced from input :
     Exchange-correlation= PBE
                           (   1   4   3   4   0   0   0)
     Any further DFT definition will be discarded
     Please, verify this is what you really want


     Reading input from environ.in:
     * using ionic solvent mode
     * setting boundary derivatives method to SSCS default
     * setting electrolyte-boundary derivatives method to SSCS default

Environ Warning (1001): card EOF ignored

     

     R & G space division:  proc/nbgrp/npool/nimage =     256
     Subspace diagonalization in iterative solution of the eigenvalue problem:
     a serial algorithm will be used


     Parallelization info
     --------------------
     sticks:   dense  smooth     PW     G-vecs:    dense   smooth      PW
     Min          29      11      3                15801     3945     551
     Max          30      12      4                15890     4040     600
     Sum        7593    3025    841              4056641  1025567  148303

     Using Slab Decomposition



     bravais-lattice index     =           14
     lattice parameter (alat)  =      11.2436  a.u.
     unit-cell volume          =   10615.2843 (a.u.)^3
     number of atoms/cell      =           16
     number of atomic types    =            1
     number of electrons       =        48.00
     number of Kohn-Sham states=           36
     kinetic-energy cutoff     =      80.0000  Ry
     charge density cutoff     =     800.0000  Ry
     scf convergence threshold =      1.0E-06
     mixing beta               =       0.2000
     number of iterations used =            8  local-TF  mixing
     energy convergence thresh.=      1.0E-05
     force convergence thresh. =      3.9E-04
     Exchange-correlation= PBE
                           (   1   4   3   4   0   0   0)
     nstep                     =          999


     ================================================================================

                                  Environ Setup Summary

     ================================================================================

     Please cite

          O. Andreussi, I. Dabo and N. Marzari, J. Chem. Phys. 136, 064102 (2012)
          F. Nattino, M. Truscott, N. Marzari, and O. Andreussi, J. Chem. Phys. 150, 041722 (2019)

     in publications or presentations arising from this work.

     ================================================================================

     Parameters
     ==========

     compensation onset threshold      =               0.1000E+00
     static permittivity               =                    89.90
     surface tension in input (dyn/cm) =                    37.30
     surface tension in internal units =               0.4792E-04

     Solvent Boundary
     ================

     solvent mode                      =                    ionic
     derivatives method                =                   lowmem
     electrolyte derivatives method    =                   lowmem
     numerical core for derivatives    =                      fft
     switching function adopted        =                     SCCS
     density limit for vacuum region   =               0.5000E-02
     density limit for bulk solvent    =               0.1000E-03
     soft-sphere radius mode           =                    bondi
     soft-sphere softness              =                     0.50
     alpha                             =                     1.32

     Electrostatic Setup
     ===================

     electrostatic problem to solve    =                    modpb
     numerical solver adopted          =                   newton
     type of auxiliary density adopted =                     none
     numerical core for poisson        =                      fft
     adopting a nested solver scheme
     inner solver                      =                       cg
     inner core                        =                      fft
     type of pbc corrections           =                parabolic
     numerical core for corrections    =                      1da

     ================================================================================


     >>>>> Grand-Canonical SCF is activated <<<<<
     Initial Total Charge  =     0.000000 e
     Target Fermi Energy   =    -3.404000 eV
     Thr. of Fermi Energy  =     0.001000 eV
     Wave-shift of Kerker  =     0.400000 bohr^-1
     Wave-shift of Hartree =     1.500000 bohr^-1
     Mixing Rate of Fermi  =     0.050000

     celldm(1)=  11.243615  celldm(2)=   1.000000  celldm(3)=   7.921182
     celldm(4)=   0.000000  celldm(5)=   0.000000  celldm(6)=  -0.333333

     crystal axes: (cart. coord. in units of alat)
               a(1) = (   1.000000   0.000000   0.000000 )  
               a(2) = (  -0.333333   0.942809   0.000000 )  
               a(3) = (   0.000000   0.000000   7.921182 )  

     reciprocal axes: (cart. coord. in units 2 pi/alat)
               b(1) = (  1.000000  0.353553 -0.000000 )  
               b(2) = (  0.000000  1.060660  0.000000 )  
               b(3) = (  0.000000 -0.000000  0.126244 )  


     PseudoPot. # 1 for Li read from file:
     /work/e89/e89/ba3g18/Repos/Pseudopotentials/Pslibrary/Li.pbe-sl-kjpaw_psl.1.0.0.UPF
     MD5 check sum: 3f4d2cafebb47c6c3aa8ed472e6f074d
     Pseudo is Projector augmented-wave, Zval =  3.0
     Generated using 'atomic' code by A. Dal Corso  v.7.4
     Shape of augmentation charge: PSQ
     Using radial grid of 1017 points,  4 beta functions with: 
                l(1) =   0
                l(2) =   0
                l(3) =   1
                l(4) =   1
     Q(r) pseudized with 0 coefficients 


     atomic species   valence    mass     pseudopotential
     Li                3.00     6.94000     Li( 1.00)

      2 Sym. Ops. (no inversion) found


                                    s                        frac. trans.

      isym =  1     identity                                     

 cryst.   s( 1) = (     1          0          0      )
                  (     0          1          0      )
                  (     0          0          1      )

 cart.    s( 1) = (  1.0000000  0.0000000  0.0000000 )
                  (  0.0000000  1.0000000  0.0000000 )
                  (  0.0000000  0.0000000  1.0000000 )


      isym =  2     180 deg rotation - cart. axis [0,0,1]        

 cryst.   s( 2) = (    -1          0          0      )
                  (     0         -1          0      )
                  (     0          0          1      )

 cart.    s( 2) = ( -1.0000000 -0.0000000  0.0000000 )
                  (  0.0000000 -1.0000000  0.0000000 )
                  (  0.0000000  0.0000000  1.0000000 )


     point group C_2  (2)   
     there are  2 classes
     the character table:

       E     C2   
A      1.00  1.00
B      1.00 -1.00

     the symmetry operations in each class and the name of the first element:

     E        1
          identity                                               
     C2       2
          180 deg rotation - cart. axis [0,0,1]                  

   Cartesian axes

     site n.     atom                  positions (alat units)
         1        Li     tau(   1) = (   0.1666620   0.2357045   3.3634848  )
         2        Li     tau(   2) = (   0.3333333   0.4714046   3.7575258  )
         3        Li     tau(   3) = (   0.1666724   0.2356999   4.1636470  )
         4        Li     tau(   4) = (   0.3333333   0.4714046   4.5576956  )
         5        Li     tau(   5) = (   0.0000037   0.7071107   3.3634986  )
         6        Li     tau(   6) = (   0.1666667   0.9428090   3.7575379  )
         7        Li     tau(   7) = (  -0.0000058   0.7071014   4.1636551  )
         8        Li     tau(   8) = (   0.1666667   0.9428090   4.5576991  )
         9        Li     tau(   9) = (   0.6666630   0.2356983   3.3634986  )
        10        Li     tau(  10) = (   0.8333333   0.4714046   3.7575349  )
        11        Li     tau(  11) = (   0.6666725   0.2357077   4.1636551  )
        12        Li     tau(  12) = (   0.8333333   0.4714046   4.5577110  )
        13        Li     tau(  13) = (   0.5000047   0.7071046   3.3634848  )
        14        Li     tau(  14) = (   0.6666667   0.9428090   3.7575265  )
        15        Li     tau(  15) = (   0.4999943   0.7071091   4.1636470  )
        16        Li     tau(  16) = (   0.6666667   0.9428090   4.5576957  )

   Crystallographic axes

     site n.     atom                  positions (cryst. coord.)
         1        Li     tau(   1) = (  0.2499961  0.2500024  0.4246190  )
         2        Li     tau(   2) = (  0.4999999  0.5000001  0.4743643  )
         3        Li     tau(   3) = (  0.2500049  0.2499975  0.5256345  )
         4        Li     tau(   4) = (  0.4999999  0.5000001  0.5753807  )
         5        Li     tau(   5) = (  0.2500049  0.7500042  0.4246208  )
         6        Li     tau(   6) = (  0.4999997  1.0000001  0.4743658  )
         7        Li     tau(   7) = (  0.2499921  0.7499943  0.5256356  )
         8        Li     tau(   8) = (  0.4999997  1.0000000  0.5753812  )
         9        Li     tau(   9) = (  0.7499948  0.2499959  0.4246208  )
        10        Li     tau(  10) = (  0.9999999  0.5000001  0.4743654  )
        11        Li     tau(  11) = (  0.7500076  0.2500058  0.5256356  )
        12        Li     tau(  12) = (  0.9999999  0.5000001  0.5753827  )
        13        Li     tau(  13) = (  0.7500036  0.7499977  0.4246190  )
        14        Li     tau(  14) = (  0.9999997  1.0000000  0.4743643  )
        15        Li     tau(  15) = (  0.7499948  0.7500025  0.5256345  )
        16        Li     tau(  16) = (  0.9999997  1.0000000  0.5753807  )

     number of k points=    61  Marzari-Vanderbilt smearing, width (Ry)=  0.0100
                       cart. coord. in units 2pi/alat
        k(    1) = (   0.0000000   0.0000000   0.0000000), wk =   0.0165289
        k(    2) = (   0.0000000   0.0964237   0.0000000), wk =   0.0330579
        k(    3) = (   0.0000000   0.1928473   0.0000000), wk =   0.0330579
        k(    4) = (   0.0000000   0.2892710   0.0000000), wk =   0.0330579
        k(    5) = (   0.0000000   0.3856946   0.0000000), wk =   0.0330579
        k(    6) = (   0.0000000   0.4821183   0.0000000), wk =   0.0330579
        k(    7) = (   0.0909091   0.0321412   0.0000000), wk =   0.0330579
        k(    8) = (   0.0909091   0.1285648   0.0000000), wk =   0.0330579
        k(    9) = (   0.0909091   0.2249885   0.0000000), wk =   0.0330579
        k(   10) = (   0.0909091   0.3214122   0.0000000), wk =   0.0330579
        k(   11) = (   0.0909091   0.4178358   0.0000000), wk =   0.0330579
        k(   12) = (   0.0909091   0.5142595   0.0000000), wk =   0.0330579
        k(   13) = (   0.0909091  -0.4499771   0.0000000), wk =   0.0330579
        k(   14) = (   0.0909091  -0.3535534   0.0000000), wk =   0.0330579
        k(   15) = (   0.0909091  -0.2571298   0.0000000), wk =   0.0330579
        k(   16) = (   0.0909091  -0.1607061   0.0000000), wk =   0.0330579
        k(   17) = (   0.0909091  -0.0642825   0.0000000), wk =   0.0330579
        k(   18) = (   0.1818182   0.0642824   0.0000000), wk =   0.0330579
        k(   19) = (   0.1818182   0.1607060   0.0000000), wk =   0.0330579
        k(   20) = (   0.1818182   0.2571297   0.0000000), wk =   0.0330579
        k(   21) = (   0.1818182   0.3535533   0.0000000), wk =   0.0330579
        k(   22) = (   0.1818182   0.4499770   0.0000000), wk =   0.0330579
        k(   23) = (   0.1818182   0.5464007   0.0000000), wk =   0.0330579
        k(   24) = (   0.1818182  -0.4178359   0.0000000), wk =   0.0330579
        k(   25) = (   0.1818182  -0.3214123   0.0000000), wk =   0.0330579
        k(   26) = (   0.1818182  -0.2249886   0.0000000), wk =   0.0330579
        k(   27) = (   0.1818182  -0.1285649   0.0000000), wk =   0.0330579
        k(   28) = (   0.1818182  -0.0321413   0.0000000), wk =   0.0330579
        k(   29) = (   0.2727273   0.0964236   0.0000000), wk =   0.0330579
        k(   30) = (   0.2727273   0.1928472   0.0000000), wk =   0.0330579
        k(   31) = (   0.2727273   0.2892709   0.0000000), wk =   0.0330579
        k(   32) = (   0.2727273   0.3856945   0.0000000), wk =   0.0330579
        k(   33) = (   0.2727273   0.4821182   0.0000000), wk =   0.0330579
        k(   34) = (   0.2727273   0.5785418   0.0000000), wk =   0.0330579
        k(   35) = (   0.2727273  -0.3856947   0.0000000), wk =   0.0330579
        k(   36) = (   0.2727273  -0.2892711   0.0000000), wk =   0.0330579
        k(   37) = (   0.2727273  -0.1928474   0.0000000), wk =   0.0330579
        k(   38) = (   0.2727273  -0.0964238   0.0000000), wk =   0.0330579
        k(   39) = (   0.2727273  -0.0000001   0.0000000), wk =   0.0330579
        k(   40) = (   0.3636364   0.1285647   0.0000000), wk =   0.0330579
        k(   41) = (   0.3636364   0.2249884   0.0000000), wk =   0.0330579
        k(   42) = (   0.3636364   0.3214121   0.0000000), wk =   0.0330579
        k(   43) = (   0.3636364   0.4178357   0.0000000), wk =   0.0330579
        k(   44) = (   0.3636364   0.5142594   0.0000000), wk =   0.0330579
        k(   45) = (   0.3636364   0.6106830   0.0000000), wk =   0.0330579
        k(   46) = (   0.3636364  -0.3535535   0.0000000), wk =   0.0330579
        k(   47) = (   0.3636364  -0.2571299   0.0000000), wk =   0.0330579
        k(   48) = (   0.3636364  -0.1607062   0.0000000), wk =   0.0330579
        k(   49) = (   0.3636364  -0.0642826   0.0000000), wk =   0.0330579
        k(   50) = (   0.3636364   0.0321411   0.0000000), wk =   0.0330579
        k(   51) = (   0.4545455   0.1607059   0.0000000), wk =   0.0330579
        k(   52) = (   0.4545455   0.2571296   0.0000000), wk =   0.0330579
        k(   53) = (   0.4545455   0.3535532   0.0000000), wk =   0.0330579
        k(   54) = (   0.4545455   0.4499769   0.0000000), wk =   0.0330579
        k(   55) = (   0.4545455   0.5464006   0.0000000), wk =   0.0330579
        k(   56) = (   0.4545455   0.6428242   0.0000000), wk =   0.0330579
        k(   57) = (   0.4545455  -0.3214123   0.0000000), wk =   0.0330579
        k(   58) = (   0.4545455  -0.2249887   0.0000000), wk =   0.0330579
        k(   59) = (   0.4545455  -0.1285650   0.0000000), wk =   0.0330579
        k(   60) = (   0.4545455  -0.0321414   0.0000000), wk =   0.0330579
        k(   61) = (   0.4545455   0.0642823   0.0000000), wk =   0.0330579

                       cryst. coord.
        k(    1) = (   0.0000000   0.0000000   0.0000000), wk =   0.0165289
        k(    2) = (   0.0000000   0.0909091   0.0000000), wk =   0.0330579
        k(    3) = (   0.0000000   0.1818182   0.0000000), wk =   0.0330579
        k(    4) = (   0.0000000   0.2727273   0.0000000), wk =   0.0330579
        k(    5) = (   0.0000000   0.3636364   0.0000000), wk =   0.0330579
        k(    6) = (   0.0000000   0.4545455   0.0000000), wk =   0.0330579
        k(    7) = (   0.0909091  -0.0000000   0.0000000), wk =   0.0330579
        k(    8) = (   0.0909091   0.0909091   0.0000000), wk =   0.0330579
        k(    9) = (   0.0909091   0.1818182   0.0000000), wk =   0.0330579
        k(   10) = (   0.0909091   0.2727273   0.0000000), wk =   0.0330579
        k(   11) = (   0.0909091   0.3636364   0.0000000), wk =   0.0330579
        k(   12) = (   0.0909091   0.4545455   0.0000000), wk =   0.0330579
        k(   13) = (   0.0909091  -0.4545455   0.0000000), wk =   0.0330579
        k(   14) = (   0.0909091  -0.3636364   0.0000000), wk =   0.0330579
        k(   15) = (   0.0909091  -0.2727273   0.0000000), wk =   0.0330579
        k(   16) = (   0.0909091  -0.1818182   0.0000000), wk =   0.0330579
        k(   17) = (   0.0909091  -0.0909091   0.0000000), wk =   0.0330579
        k(   18) = (   0.1818182  -0.0000000   0.0000000), wk =   0.0330579
        k(   19) = (   0.1818182   0.0909091   0.0000000), wk =   0.0330579
        k(   20) = (   0.1818182   0.1818182   0.0000000), wk =   0.0330579
        k(   21) = (   0.1818182   0.2727273   0.0000000), wk =   0.0330579
        k(   22) = (   0.1818182   0.3636364   0.0000000), wk =   0.0330579
        k(   23) = (   0.1818182   0.4545455   0.0000000), wk =   0.0330579
        k(   24) = (   0.1818182  -0.4545455   0.0000000), wk =   0.0330579
        k(   25) = (   0.1818182  -0.3636364   0.0000000), wk =   0.0330579
        k(   26) = (   0.1818182  -0.2727273   0.0000000), wk =   0.0330579
        k(   27) = (   0.1818182  -0.1818182   0.0000000), wk =   0.0330579
        k(   28) = (   0.1818182  -0.0909091   0.0000000), wk =   0.0330579
        k(   29) = (   0.2727273  -0.0000000   0.0000000), wk =   0.0330579
        k(   30) = (   0.2727273   0.0909091   0.0000000), wk =   0.0330579
        k(   31) = (   0.2727273   0.1818182   0.0000000), wk =   0.0330579
        k(   32) = (   0.2727273   0.2727273   0.0000000), wk =   0.0330579
        k(   33) = (   0.2727273   0.3636364   0.0000000), wk =   0.0330579
        k(   34) = (   0.2727273   0.4545455   0.0000000), wk =   0.0330579
        k(   35) = (   0.2727273  -0.4545455   0.0000000), wk =   0.0330579
        k(   36) = (   0.2727273  -0.3636364   0.0000000), wk =   0.0330579
        k(   37) = (   0.2727273  -0.2727273   0.0000000), wk =   0.0330579
        k(   38) = (   0.2727273  -0.1818182   0.0000000), wk =   0.0330579
        k(   39) = (   0.2727273  -0.0909091   0.0000000), wk =   0.0330579
        k(   40) = (   0.3636364  -0.0000000   0.0000000), wk =   0.0330579
        k(   41) = (   0.3636364   0.0909091   0.0000000), wk =   0.0330579
        k(   42) = (   0.3636364   0.1818182   0.0000000), wk =   0.0330579
        k(   43) = (   0.3636364   0.2727273   0.0000000), wk =   0.0330579
        k(   44) = (   0.3636364   0.3636364   0.0000000), wk =   0.0330579
        k(   45) = (   0.3636364   0.4545455   0.0000000), wk =   0.0330579
        k(   46) = (   0.3636364  -0.4545455   0.0000000), wk =   0.0330579
        k(   47) = (   0.3636364  -0.3636364   0.0000000), wk =   0.0330579
        k(   48) = (   0.3636364  -0.2727273   0.0000000), wk =   0.0330579
        k(   49) = (   0.3636364  -0.1818182   0.0000000), wk =   0.0330579
        k(   50) = (   0.3636364  -0.0909091   0.0000000), wk =   0.0330579
        k(   51) = (   0.4545455   0.0000000   0.0000000), wk =   0.0330579
        k(   52) = (   0.4545455   0.0909091   0.0000000), wk =   0.0330579
        k(   53) = (   0.4545455   0.1818182   0.0000000), wk =   0.0330579
        k(   54) = (   0.4545455   0.2727273   0.0000000), wk =   0.0330579
        k(   55) = (   0.4545455   0.3636364   0.0000000), wk =   0.0330579
        k(   56) = (   0.4545455   0.4545455   0.0000000), wk =   0.0330579
        k(   57) = (   0.4545455  -0.4545455   0.0000000), wk =   0.0330579
        k(   58) = (   0.4545455  -0.3636364   0.0000000), wk =   0.0330579
        k(   59) = (   0.4545455  -0.2727273   0.0000000), wk =   0.0330579
        k(   60) = (   0.4545455  -0.1818182   0.0000000), wk =   0.0330579
        k(   61) = (   0.4545455  -0.0909091   0.0000000), wk =   0.0330579

     Dense  grid:  4056641 G-vectors     FFT dimensions: ( 108, 108, 810)

     Smooth grid:  1025567 G-vectors     FFT dimensions: (  72,  72, 512)

     Dynamical RAM for                 wfc:       0.28 MB

     Dynamical RAM for     wfc (w. buffer):      17.06 MB

     Dynamical RAM for           str. fact:       0.24 MB

     Dynamical RAM for           local pot:       0.00 MB

     Dynamical RAM for          nlocal pot:       0.98 MB

     Dynamical RAM for                qrad:       0.65 MB

     Dynamical RAM for          rho,v,vnew:       1.79 MB

     Dynamical RAM for               rhoin:       0.60 MB

     Dynamical RAM for            rho*nmix:       3.86 MB

     Dynamical RAM for           G-vectors:       0.94 MB

     Dynamical RAM for          h,s,v(r/c):       0.95 MB

     Dynamical RAM for          <psi|beta>:       0.07 MB

     Dynamical RAM for                 psi:       1.10 MB

     Dynamical RAM for                hpsi:       1.10 MB

     Dynamical RAM for                spsi:       1.10 MB

     Dynamical RAM for      wfcinit/wfcrot:       0.58 MB

     Dynamical RAM for           addusdens:      14.24 MB

     Dynamical RAM for          addusforce:      21.62 MB

     Estimated static dynamical RAM per process >      24.52 MB

     Estimated max dynamical RAM per process >      61.90 MB

     Estimated total dynamical RAM >      12.50 GB

     Initial potential from superposition of free atoms

     starting charge      47.9263, renormalised to      48.0000

     negative rho (up, down):  1.937E-03 0.000E+00
     Starting wfcs are random
     Checking if some PAW data can be deallocated... 

     total cpu time spent up to now is       18.0 secs

     Self-consistent Calculation

     iteration #  1     ecut=    80.00 Ry     beta= 0.20
     Davidson diagonalization with overlap

---- Real-time Memory Report at c_bands before calling an iterative solver
           244 MiB given to the printing process from OS
             0 MiB allocation reported by mallinfo(arena+hblkhd)
        221078 MiB available memory on the node where the printing process lives
------------------
     c_bands:  1 eigenvalues not converged
     c_bands:  1 eigenvalues not converged
     c_bands:  1 eigenvalues not converged
     c_bands:  2 eigenvalues not converged
     c_bands:  1 eigenvalues not converged
     c_bands:  1 eigenvalues not converged
     c_bands:  1 eigenvalues not converged
     c_bands:  1 eigenvalues not converged
     ethr =  1.00E-12,  avg # of iterations = 95.2

     negative rho (up, down):  1.444E-03 0.000E+00

     add environment contribution to local potential

     total cpu time spent up to now is      142.6 secs

     total energy              =    -240.60437919 Ry
     estimated scf accuracy    <       0.06916029 Ry

     total charge of GC-SCF    =       0.02372485 e
     the Fermi energy          =      -4.72323276 eV
                        (error :       1.31923276 eV)
     electrostatic embedding   =       0.00000000 Ry
     cavitation energy         =       0.01235683 Ry
     electrolyte free energy   =       0.00456895 Ry
     correction to one-el term =      -0.00000000 Ry

     iteration #  2     ecut=    80.00 Ry     beta= 0.20
     Davidson diagonalization with overlap

---- Real-time Memory Report at c_bands before calling an iterative solver
           244 MiB given to the printing process from OS
             0 MiB allocation reported by mallinfo(arena+hblkhd)
        221201 MiB available memory on the node where the printing process lives
------------------
     ethr =  1.00E-05,  avg # of iterations = 10.2

     negative rho (up, down):  1.075E-03 0.000E+00

     add environment contribution to local potential

     total cpu time spent up to now is      158.9 secs

     total energy              =    -240.54495103 Ry
     estimated scf accuracy    <       0.02178438 Ry

     total charge of GC-SCF    =       0.04494985 e
     the Fermi energy          =      -3.93108006 eV
                        (error :       0.52708006 eV)
     electrostatic embedding   =      -0.01798215 Ry
     cavitation energy         =       0.01235683 Ry
     electrolyte free energy   =      -0.00214055 Ry
     correction to one-el term =      -0.76256772 Ry

     iteration #  3     ecut=    80.00 Ry     beta= 0.20
     Davidson diagonalization with overlap

---- Real-time Memory Report at c_bands before calling an iterative solver
           244 MiB given to the printing process from OS
             0 MiB allocation reported by mallinfo(arena+hblkhd)
        221210 MiB available memory on the node where the printing process lives
------------------
     ethr =  1.00E-05,  avg # of iterations = 12.0

     negative rho (up, down):  8.521E-04 0.000E+00

     add environment contribution to local potential

     total cpu time spent up to now is      176.3 secs

     total energy              =    -240.55270478 Ry
     estimated scf accuracy    <       0.00923927 Ry

     total charge of GC-SCF    =       0.07019565 e
     the Fermi energy          =      -3.36784450 eV
                        (error :       0.03615550 eV)
     electrostatic embedding   =      -0.01604726 Ry
     cavitation energy         =       0.01235683 Ry
     electrolyte free energy   =      -0.00191740 Ry
     correction to one-el term =      -1.70421061 Ry

     iteration #  4     ecut=    80.00 Ry     beta= 0.20
     Davidson diagonalization with overlap

---- Real-time Memory Report at c_bands before calling an iterative solver
           245 MiB given to the printing process from OS
             0 MiB allocation reported by mallinfo(arena+hblkhd)
        221213 MiB available memory on the node where the printing process lives
------------------
     ethr =  1.00E-05,  avg # of iterations =  6.8

     negative rho (up, down):  6.979E-04 0.000E+00

     add environment contribution to local potential

     total cpu time spent up to now is      188.9 secs

     total energy              =    -240.55032927 Ry
     estimated scf accuracy    <       0.00391889 Ry

     total charge of GC-SCF    =       0.10069469 e
     the Fermi energy          =      -3.33893943 eV
                        (error :       0.06506057 eV)
     electrostatic embedding   =      -0.01396801 Ry
     cavitation energy         =       0.01235683 Ry
     electrolyte free energy   =      -0.00188747 Ry
     correction to one-el term =      -2.22826602 Ry

     iteration #  5     ecut=    80.00 Ry     beta= 0.20
     Davidson diagonalization with overlap

---- Real-time Memory Report at c_bands before calling an iterative solver
           245 MiB given to the printing process from OS
             0 MiB allocation reported by mallinfo(arena+hblkhd)
        221218 MiB available memory on the node where the printing process lives
------------------
     ethr =  8.18E-06,  avg # of iterations = 11.1

     negative rho (up, down):  6.063E-04 0.000E+00

     add environment contribution to local potential

     total cpu time spent up to now is      204.3 secs

     total energy              =    -240.55313968 Ry
     estimated scf accuracy    <       0.00085738 Ry

     total charge of GC-SCF    =       0.20882185 e
     the Fermi energy          =      -3.05514231 eV
                        (error :       0.34885769 eV)
     electrostatic embedding   =      -0.01319083 Ry
     cavitation energy         =       0.01235683 Ry
     electrolyte free energy   =      -0.00146967 Ry
     correction to one-el term =      -3.14420244 Ry

     iteration #  6     ecut=    80.00 Ry     beta= 0.20
     Davidson diagonalization with overlap

---- Real-time Memory Report at c_bands before calling an iterative solver
           245 MiB given to the printing process from OS
             0 MiB allocation reported by mallinfo(arena+hblkhd)
        221220 MiB available memory on the node where the printing process lives
------------------
     ethr =  1.79E-06,  avg # of iterations = 18.8

     negative rho (up, down):  5.254E-04 0.000E+00

     add environment contribution to local potential

     total cpu time spent up to now is      226.5 secs

     total energy              =    -240.56551282 Ry
     estimated scf accuracy    <       0.00064294 Ry

     total charge of GC-SCF    =       0.23684091 e
     the Fermi energy          =      -2.78355117 eV
                        (error :       0.62044883 eV)
     electrostatic embedding   =      -0.01793962 Ry
     cavitation energy         =       0.01235683 Ry
     electrolyte free energy   =      -0.00091686 Ry
     correction to one-el term =      -6.04564405 Ry

     iteration #  7     ecut=    80.00 Ry     beta= 0.20
     Davidson diagonalization with overlap

---- Real-time Memory Report at c_bands before calling an iterative solver
           245 MiB given to the printing process from OS
             0 MiB allocation reported by mallinfo(arena+hblkhd)
        221220 MiB available memory on the node where the printing process lives
------------------
     ethr =  1.35E-06,  avg # of iterations =  4.8

     negative rho (up, down):  4.600E-04 0.000E+00

     add environment contribution to local potential

     total cpu time spent up to now is      237.5 secs

     total energy              =    -240.55735572 Ry
     estimated scf accuracy    <       0.00030128 Ry

     total charge of GC-SCF    =       0.32202018 e
     the Fermi energy          =      -2.85916465 eV
                        (error :       0.54483535 eV)
     electrostatic embedding   =      -0.02078661 Ry
     cavitation energy         =       0.01235683 Ry
     electrolyte free energy   =      -0.00111134 Ry
     correction to one-el term =      -6.78562395 Ry

     iteration #  8     ecut=    80.00 Ry     beta= 0.20
     Davidson diagonalization with overlap

---- Real-time Memory Report at c_bands before calling an iterative solver
           245 MiB given to the printing process from OS
             0 MiB allocation reported by mallinfo(arena+hblkhd)
        221218 MiB available memory on the node where the printing process lives
------------------
     ethr =  6.32E-07,  avg # of iterations =  9.7

     negative rho (up, down):  4.075E-04 0.000E+00

     add environment contribution to local potential

     total cpu time spent up to now is      253.6 secs

     total energy              =    -240.56337450 Ry
     estimated scf accuracy    <       0.00010328 Ry

     total charge of GC-SCF    =       0.37309070 e
     the Fermi energy          =      -2.99141012 eV
                        (error :       0.41258988 eV)
     electrostatic embedding   =      -0.03312352 Ry
     cavitation energy         =       0.01235683 Ry
     electrolyte free energy   =      -0.00156542 Ry
     correction to one-el term =      -9.17109005 Ry

     iteration #  9     ecut=    80.00 Ry     beta= 0.20
     Davidson diagonalization with overlap

---- Real-time Memory Report at c_bands before calling an iterative solver
           245 MiB given to the printing process from OS
             0 MiB allocation reported by mallinfo(arena+hblkhd)
        221205 MiB available memory on the node where the printing process lives
------------------
     ethr =  2.17E-07,  avg # of iterations =  7.9

     negative rho (up, down):  4.213E-04 0.000E+00

     add environment contribution to local potential

     total cpu time spent up to now is      268.7 secs

     total energy              =    -240.56063961 Ry
     estimated scf accuracy    <       0.00014675 Ry

     total charge of GC-SCF    =       0.49857822 e
     the Fermi energy          =      -2.96564809 eV
                        (error :       0.43835191 eV)
     electrostatic embedding   =      -0.04410277 Ry
     cavitation energy         =       0.01235683 Ry
     electrolyte free energy   =      -0.00167498 Ry
     correction to one-el term =     -10.76118730 Ry

     iteration # 10     ecut=    80.00 Ry     beta= 0.20
     Davidson diagonalization with overlap

---- Real-time Memory Report at c_bands before calling an iterative solver
           245 MiB given to the printing process from OS
             0 MiB allocation reported by mallinfo(arena+hblkhd)
        221194 MiB available memory on the node where the printing process lives
------------------
     ethr =  2.17E-07,  avg # of iterations =  9.3

     negative rho (up, down):  7.287E-04 0.000E+00

     add environment contribution to local potential

     total cpu time spent up to now is      285.2 secs

     total energy              =    -240.56916756 Ry
     estimated scf accuracy    <       0.00018735 Ry

     total charge of GC-SCF    =       0.80934852 e
     the Fermi energy          =      -3.00894477 eV
                        (error :       0.39505523 eV)
     electrostatic embedding   =      -0.07815095 Ry
     cavitation energy         =       0.01235683 Ry
     electrolyte free energy   =      -0.00214817 Ry
     correction to one-el term =     -14.55138668 Ry

     iteration # 11     ecut=    80.00 Ry     beta= 0.20
     Davidson diagonalization with overlap

---- Real-time Memory Report at c_bands before calling an iterative solver
           245 MiB given to the printing process from OS
             0 MiB allocation reported by mallinfo(arena+hblkhd)
        221185 MiB available memory on the node where the printing process lives
------------------
     ethr =  2.17E-07,  avg # of iterations = 15.3

     negative rho (up, down):  4.522E-04 0.000E+00

     add environment contribution to local potential

     total cpu time spent up to now is      306.1 secs

     total energy              =    -240.57721788 Ry
     estimated scf accuracy    <       0.00001922 Ry

     total charge of GC-SCF    =       0.77212754 e
     the Fermi energy          =      -3.23644583 eV
                        (error :       0.16755417 eV)
     electrostatic embedding   =      -0.20414201 Ry
     cavitation energy         =       0.01235683 Ry
     electrolyte free energy   =      -0.00376243 Ry
     correction to one-el term =     -23.53908635 Ry

     iteration # 12     ecut=    80.00 Ry     beta= 0.20
     Davidson diagonalization with overlap

---- Real-time Memory Report at c_bands before calling an iterative solver
           245 MiB given to the printing process from OS
             0 MiB allocation reported by mallinfo(arena+hblkhd)
        221148 MiB available memory on the node where the printing process lives
------------------
     ethr =  4.07E-08,  avg # of iterations = 12.9

     negative rho (up, down):  3.001E-04 0.000E+00

     add environment contribution to local potential

     total cpu time spent up to now is      324.5 secs

     total energy              =    -240.57664355 Ry
     estimated scf accuracy    <       0.00001436 Ry

     total charge of GC-SCF    =       0.93493788 e
     the Fermi energy          =      -3.23282177 eV
                        (error :       0.17117823 eV)
     electrostatic embedding   =      -0.18475568 Ry
     cavitation energy         =       0.01235683 Ry
     electrolyte free energy   =      -0.00357944 Ry
     correction to one-el term =     -22.41783213 Ry

     iteration # 13     ecut=    80.00 Ry     beta= 0.20
     Davidson diagonalization with overlap

---- Real-time Memory Report at c_bands before calling an iterative solver
           245 MiB given to the printing process from OS
             0 MiB allocation reported by mallinfo(arena+hblkhd)
        221152 MiB available memory on the node where the printing process lives
------------------
     ethr =  3.05E-08,  avg # of iterations = 20.2

     negative rho (up, down):  7.406E-04 0.000E+00

     add environment contribution to local potential

     total cpu time spent up to now is      349.2 secs

     total energy              =    -240.57558003 Ry
     estimated scf accuracy    <       0.00001899 Ry

     total charge of GC-SCF    =       0.99206399 e
     the Fermi energy          =      -3.31821935 eV
                        (error :       0.08578065 eV)
     electrostatic embedding   =      -0.27016782 Ry
     cavitation energy         =       0.01235683 Ry
     electrolyte free energy   =      -0.00449516 Ry
     correction to one-el term =     -26.98625449 Ry

     iteration # 14     ecut=    80.00 Ry     beta= 0.20
     Davidson diagonalization with overlap

---- Real-time Memory Report at c_bands before calling an iterative solver
           245 MiB given to the printing process from OS
             0 MiB allocation reported by mallinfo(arena+hblkhd)
        221157 MiB available memory on the node where the printing process lives
------------------
     ethr =  3.05E-08,  avg # of iterations = 24.8

     negative rho (up, down):  1.067E-03 0.000E+00

     add environment contribution to local potential

     total cpu time spent up to now is      375.1 secs

     total energy              =    -240.57550147 Ry
     estimated scf accuracy    <       0.00001289 Ry

     total charge of GC-SCF    =       0.98742534 e
     the Fermi energy          =      -3.38773345 eV
                        (error :       0.01626655 eV)
     electrostatic embedding   =      -0.30330182 Ry
     cavitation energy         =       0.01235683 Ry
     electrolyte free energy   =      -0.00490263 Ry
     correction to one-el term =     -28.54290816 Ry

     iteration # 15     ecut=    80.00 Ry     beta= 0.20
     Davidson diagonalization with overlap

---- Real-time Memory Report at c_bands before calling an iterative solver
           246 MiB given to the printing process from OS
             0 MiB allocation reported by mallinfo(arena+hblkhd)
        221169 MiB available memory on the node where the printing process lives
------------------
     ethr =  2.74E-08,  avg # of iterations = 22.1

     negative rho (up, down):  7.056E-04 0.000E+00

     add environment contribution to local potential

     total cpu time spent up to now is      398.9 secs

     total energy              =    -240.57765639 Ry
     estimated scf accuracy    <       0.00000476 Ry

     total charge of GC-SCF    =       0.89749394 e
     the Fermi energy          =      -3.42612575 eV
                        (error :       0.02212575 eV)
     electrostatic embedding   =      -0.30024994 Ry
     cavitation energy         =       0.01235683 Ry
     electrolyte free energy   =      -0.00491830 Ry
     correction to one-el term =     -28.40550289 Ry

     iteration # 16     ecut=    80.00 Ry     beta= 0.20
     Davidson diagonalization with overlap

---- Real-time Memory Report at c_bands before calling an iterative solver
           246 MiB given to the printing process from OS
             0 MiB allocation reported by mallinfo(arena+hblkhd)
        221175 MiB available memory on the node where the printing process lives
------------------
     ethr =  1.01E-08,  avg # of iterations = 17.9

     negative rho (up, down):  4.382E-04 0.000E+00

     add environment contribution to local potential

     total cpu time spent up to now is      422.8 secs

     total energy              =    -240.57609088 Ry
     estimated scf accuracy    <       0.00000835 Ry

     total charge of GC-SCF    =       0.95110306 e
     the Fermi energy          =      -3.37623668 eV
                        (error :       0.02776332 eV)
     electrostatic embedding   =      -0.24906244 Ry
     cavitation energy         =       0.01235683 Ry
     electrolyte free energy   =      -0.00437514 Ry
     correction to one-el term =     -25.93947049 Ry

     iteration # 17     ecut=    80.00 Ry     beta= 0.20
     Davidson diagonalization with overlap

---- Real-time Memory Report at c_bands before calling an iterative solver
           246 MiB given to the printing process from OS
             0 MiB allocation reported by mallinfo(arena+hblkhd)
        221164 MiB available memory on the node where the printing process lives
------------------
     ethr =  1.01E-08,  avg # of iterations = 16.2

     negative rho (up, down):  3.812E-04 0.000E+00

     add environment contribution to local potential

     total cpu time spent up to now is      443.7 secs

     total energy              =    -240.57560964 Ry
     estimated scf accuracy    <       0.00000079 Ry

     total charge of GC-SCF    =       0.95160389 e
     the Fermi energy          =      -3.39196816 eV
                        (error :       0.01203184 eV)
     electrostatic embedding   =      -0.27960300 Ry
     cavitation energy         =       0.01235683 Ry
     electrolyte free energy   =      -0.00468022 Ry
     correction to one-el term =     -27.43976799 Ry

     iteration # 18     ecut=    80.00 Ry     beta= 0.20
     Davidson diagonalization with overlap

---- Real-time Memory Report at c_bands before calling an iterative solver
           246 MiB given to the printing process from OS
             0 MiB allocation reported by mallinfo(arena+hblkhd)
        221175 MiB available memory on the node where the printing process lives
------------------
     c_bands:  1 eigenvalues not converged
     ethr =  1.68E-09,  avg # of iterations = 20.2

     negative rho (up, down):  2.780E-04 0.000E+00

     add environment contribution to local potential

     total cpu time spent up to now is      467.1 secs

     total energy              =    -240.57561286 Ry
     estimated scf accuracy    <       0.00000096 Ry

     total charge of GC-SCF    =       0.94317743 e
     the Fermi energy          =      -3.40729397 eV
                        (error :       0.00329397 eV)
     electrostatic embedding   =      -0.28018831 Ry
     cavitation energy         =       0.01235683 Ry
     electrolyte free energy   =      -0.00470164 Ry
     correction to one-el term =     -27.46848589 Ry

     iteration # 19     ecut=    80.00 Ry     beta= 0.20
     Davidson diagonalization with overlap

---- Real-time Memory Report at c_bands before calling an iterative solver
           246 MiB given to the printing process from OS
             0 MiB allocation reported by mallinfo(arena+hblkhd)
        221177 MiB available memory on the node where the printing process lives
------------------
     ethr =  1.68E-09,  avg # of iterations = 16.2

     negative rho (up, down):  2.604E-04 0.000E+00

     add environment contribution to local potential

     total cpu time spent up to now is      487.5 secs

     total energy              =    -240.57563011 Ry
     estimated scf accuracy    <       0.00000095 Ry

     total charge of GC-SCF    =       0.95351836 e
     the Fermi energy          =      -3.39895631 eV
                        (error :       0.00504369 eV)
     electrostatic embedding   =      -0.27526159 Ry
     cavitation energy         =       0.01235683 Ry
     electrolyte free energy   =      -0.00464427 Ry
     correction to one-el term =     -27.23354173 Ry

     iteration # 20     ecut=    80.00 Ry     beta= 0.20
     Davidson diagonalization with overlap

---- Real-time Memory Report at c_bands before calling an iterative solver
           246 MiB given to the printing process from OS
             0 MiB allocation reported by mallinfo(arena+hblkhd)
        221146 MiB available memory on the node where the printing process lives
------------------
     ethr =  1.68E-09,  avg # of iterations = 13.5

     negative rho (up, down):  2.495E-04 0.000E+00

     total cpu time spent up to now is      504.1 secs

     End of self-consistent calculation

          k = 0.0000 0.0000 0.0000 (128001 PWs)   bands (ev):

   -50.5284 -50.5283 -50.5190 -50.5188 -50.5188 -50.5187 -50.5124 -50.5123
   -49.8958 -49.8858 -49.8813 -49.8812 -49.8812 -49.8811 -49.8780 -49.8711
    -6.8236  -6.1974  -4.9613  -3.3876  -3.3876  -3.3876  -3.3876  -3.2813
    -3.1281  -3.1280  -3.1280  -3.1280  -3.0157  -2.5981  -2.3086  -0.8423
    -0.2288  -0.1855  -0.0868  -0.0491

     occupation numbers 
     1.0000   1.0000   1.0000   1.0000   1.0000   1.0000   1.0000   1.0000
     1.0000   1.0000   1.0000   1.0000   1.0000   1.0000   1.0000   1.0000
     1.0000   1.0000   1.0000   0.3248   0.3247   0.3244   0.3244   0.0420
     0.0003   0.0003   0.0003   0.0003   0.0000   0.0000   0.0000   0.0000
     0.0000   0.0000   0.0000   0.0000

          k = 0.0000 0.0964 0.0000 (128124 PWs)   bands (ev):

   -50.5283 -50.5281 -50.5191 -50.5189 -50.5188 -50.5186 -50.5125 -50.5124
   -49.8956 -49.8857 -49.8821 -49.8816 -49.8807 -49.8806 -49.8781 -49.8713
    -6.7944  -6.1682  -4.9314  -3.9435  -3.5449  -3.5177  -3.2527  -3.2496
    -3.1165  -3.0551  -3.0110  -2.9471  -2.7992  -2.5596  -2.3544  -0.9095
    -0.1921  -0.1462  -0.0490  -0.0100

     occupation numbers 
     1.0000   1.0000   1.0000   1.0000   1.0000   1.0000   1.0000   1.0000
     1.0000   1.0000   1.0000   1.0000   1.0000   1.0000   1.0000   1.0000
     1.0000   1.0000   1.0000   1.0000   1.0381   0.9664   0.0199   0.0183
     0.0002   0.0000   0.0000   0.0000   0.0000   0.0000   0.0000   0.0000
     0.0000   0.0000   0.0000   0.0000

          k = 0.0000 0.1928 0.0000 (128159 PWs)   bands (ev):

   -50.5277 -50.5275 -50.5197 -50.5195 -50.5184 -50.5182 -50.5129 -50.5128
   -49.8949 -49.8852 -49.8834 -49.8817 -49.8806 -49.8797 -49.8784 -49.8718
    -6.7069  -6.0808  -4.8422  -4.4752  -3.9521  -3.6488  -3.2615  -3.1587
    -3.1553  -3.0176  -2.8531  -2.8460  -2.4748  -2.4440  -2.2987  -1.0841
    -0.0832  -0.0284   0.0218   0.1072

     occupation numbers 
     1.0000   1.0000   1.0000   1.0000   1.0000   1.0000   1.0000   1.0000
     1.0000   1.0000   1.0000   1.0000   1.0000   1.0000   1.0000   1.0000
     1.0000   1.0000   1.0000   1.0000   1.0000   1.0594   0.0253   0.0009
     0.0008   0.0000   0.0000   0.0000   0.0000   0.0000   0.0000   0.0000
     0.0000   0.0000   0.0000   0.0000

          k = 0.0000 0.2893 0.0000 (128149 PWs)   bands (ev):

   -50.5268 -50.5266 -50.5206 -50.5204 -50.5178 -50.5176 -50.5135 -50.5134
   -49.8937 -49.8850 -49.8846 -49.8815 -49.8808 -49.8788 -49.8786 -49.8726
    -6.5609  -5.9354  -4.9612  -4.6946  -4.3889  -3.6981  -3.2951  -3.2755
    -3.2450  -3.0007  -2.6413  -2.6350  -2.5070  -2.2514  -2.0108  -1.3214
    -0.1578   0.0256   0.0678   0.0942

     occupation numbers 
     1.0000   1.0000   1.0000   1.0000   1.0000   1.0000   1.0000   1.0000
     1.0000   1.0000   1.0000   1.0000   1.0000   1.0000   1.0000   1.0000
     1.0000   1.0000   1.0000   1.0000   1.0000   1.0279   0.0583   0.0364
     0.0161   0.0000   0.0000   0.0000   0.0000   0.0000   0.0000   0.0000
     0.0000   0.0000   0.0000   0.0000

          k = 0.0000 0.3857 0.0000 (128143 PWs)   bands (ev):

   -50.5257 -50.5255 -50.5217 -50.5215 -50.5170 -50.5169 -50.5143 -50.5141
   -49.8922 -49.8867 -49.8838 -49.8813 -49.8811 -49.8794 -49.8774 -49.8736
    -6.3564  -5.7327  -5.3949  -4.7964  -4.4909  -3.6959  -3.6040  -3.4346
    -3.1874  -2.8038  -2.7910  -2.4040  -2.0966  -2.0415  -1.9821  -1.5891
    -0.7190  -0.5368   0.1795   0.3276

     occupation numbers 
     1.0000   1.0000   1.0000   1.0000   1.0000   1.0000   1.0000   1.0000
     1.0000   1.0000   1.0000   1.0000   1.0000   1.0000   1.0000   1.0000
     1.0000   1.0000   1.0000   1.0000   1.0000   1.0292   1.0825   0.5669
     0.0026   0.0000   0.0000   0.0000   0.0000   0.0000   0.0000   0.0000
     0.0000   0.0000   0.0000   0.0000

          k = 0.0000 0.4821 0.0000 (128153 PWs)   bands (ev):

   -50.5244 -50.5242 -50.5230 -50.5228 -50.5161 -50.5160 -50.5152 -50.5150
   -49.8905 -49.8886 -49.8829 -49.8821 -49.8806 -49.8800 -49.8761 -49.8748
    -6.0937  -5.7729  -5.4736  -5.1603  -4.2350  -3.9344  -3.6465  -3.5563
    -3.0907  -2.9601  -2.5374  -2.2658  -2.1427  -1.8674  -1.6362  -1.6259
    -1.2146  -1.1011   0.3559   0.5687

     occupation numbers 
     1.0000   1.0000   1.0000   1.0000   1.0000   1.0000   1.0000   1.0000
     1.0000   1.0000   1.0000   1.0000   1.0000   1.0000   1.0000   1.0000
     1.0000   1.0000   1.0000   1.0000   1.0000   1.0000   1.0610   1.0575
     0.0001   0.0000   0.0000   0.0000   0.0000   0.0000   0.0000   0.0000
     0.0000   0.0000   0.0000   0.0000

          k = 0.0909 0.0321 0.0000 (128124 PWs)   bands (ev):

   -50.5283 -50.5281 -50.5191 -50.5189 -50.5188 -50.5186 -50.5125 -50.5124
   -49.8956 -49.8857 -49.8821 -49.8816 -49.8807 -49.8806 -49.8781 -49.8713
    -6.7944  -6.1682  -4.9314  -3.9435  -3.5449  -3.5177  -3.2527  -3.2496
    -3.1165  -3.0551  -3.0110  -2.9471  -2.7992  -2.5596  -2.3544  -0.9095
    -0.1921  -0.1462  -0.0490  -0.0100

     occupation numbers 
     1.0000   1.0000   1.0000   1.0000   1.0000   1.0000   1.0000   1.0000
     1.0000   1.0000   1.0000   1.0000   1.0000   1.0000   1.0000   1.0000
     1.0000   1.0000   1.0000   1.0000   1.0381   0.9664   0.0199   0.0183
     0.0002   0.0000   0.0000   0.0000   0.0000   0.0000   0.0000   0.0000
     0.0000   0.0000   0.0000   0.0000

          k = 0.0909 0.1286 0.0000 (128153 PWs)   bands (ev):

   -50.5280 -50.5278 -50.5191 -50.5190 -50.5189 -50.5189 -50.5126 -50.5125
   -49.8952 -49.8855 -49.8825 -49.8825 -49.8801 -49.8801 -49.8780 -49.8715
    -6.7458  -6.1200  -4.8827  -4.0999  -4.0999  -3.6301  -3.6301  -3.1981
    -2.9118  -2.9094  -2.9094  -2.5866  -2.5865  -2.4951  -2.2050  -0.7391
    -0.1320  -0.0958  -0.0808   0.0034

     occupation numbers 
     1.0000   1.0000   1.0000   1.0000   1.0000   1.0000   1.0000   1.0000
     1.0000   1.0000   1.0000   1.0000   1.0000   1.0000   1.0000   1.0000
     1.0000   1.0000   1.0000   1.0000   1.0000   1.0715   1.0715   0.0038
     0.0000   0.0000   0.0000   0.0000   0.0000   0.0000   0.0000   0.0000
     0.0000   0.0000   0.0000   0.0000

          k = 0.0909 0.2250 0.0000 (128141 PWs)   bands (ev):

   -50.5274 -50.5272 -50.5197 -50.5195 -50.5187 -50.5185 -50.5130 -50.5128
   -49.8944 -49.8851 -49.8838 -49.8826 -49.8801 -49.8793 -49.8782 -49.8720
    -6.6387  -6.0135  -4.7746  -4.6179  -4.1966  -4.0720  -3.6887  -3.0845
    -3.0577  -2.8521  -2.8352  -2.3537  -2.3183  -2.1552  -2.1373  -0.7363
    -0.0126  -0.0005   0.0632   0.1226

     occupation numbers 
     1.0000   1.0000   1.0000   1.0000   1.0000   1.0000   1.0000   1.0000
     1.0000   1.0000   1.0000   1.0000   1.0000   1.0000   1.0000   1.0000
     1.0000   1.0000   1.0000   1.0000   1.0000   1.0000   1.0332   0.0000
     0.0000   0.0000   0.0000   0.0000   0.0000   0.0000   0.0000   0.0000
     0.0000   0.0000   0.0000   0.0000

          k = 0.0909 0.3214 0.0000 (128182 PWs)   bands (ev):

   -50.5265 -50.5263 -50.5206 -50.5204 -50.5181 -50.5180 -50.5135 -50.5134
   -49.8931 -49.8854 -49.8845 -49.8825 -49.8804 -49.8785 -49.8783 -49.8729
    -6.4730  -5.8489  -5.0869  -4.6085  -4.5017  -4.2361  -3.6946  -3.3508
    -2.9116  -2.8718  -2.7257  -2.2067  -2.1352  -1.9980  -1.9557  -0.9514
    -0.3916  -0.3191   0.1967   0.2263

     occupation numbers 
     1.0000   1.0000   1.0000   1.0000   1.0000   1.0000   1.0000   1.0000
     1.0000   1.0000   1.0000   1.0000   1.0000   1.0000   1.0000   1.0000
     1.0000   1.0000   1.0000   1.0000   1.0000   1.0000   1.0298   0.1815
     0.0000   0.0000   0.0000   0.0000   0.0000   0.0000   0.0000   0.0000
     0.0000   0.0000   0.0000   0.0000

          k = 0.0909 0.4178 0.0000 (128184 PWs)   bands (ev):

   -50.5253 -50.5251 -50.5217 -50.5216 -50.5174 -50.5172 -50.5143 -50.5141
   -49.8916 -49.8872 -49.8837 -49.8821 -49.8810 -49.8790 -49.8772 -49.8740
    -6.2487  -5.6270  -5.5019  -4.8958  -4.3869  -4.2210  -3.6853  -3.6499
    -2.9393  -2.6860  -2.5821  -2.3252  -2.0712  -1.8401  -1.6326  -1.3135
    -1.0484  -0.8603   0.2516   0.4330

     occupation numbers 
     1.0000   1.0000   1.0000   1.0000   1.0000   1.0000   1.0000   1.0000
     1.0000   1.0000   1.0000   1.0000   1.0000   1.0000   1.0000   1.0000
     1.0000   1.0000   1.0000   1.0000   1.0000   1.0000   1.0352   1.0587
     0.0000   0.0000   0.0000   0.0000   0.0000   0.0000   0.0000   0.0000
     0.0000   0.0000   0.0000   0.0000

          k = 0.0909 0.5143 0.0000 (128204 PWs)   bands (ev):

   -50.5240 -50.5238 -50.5231 -50.5229 -50.5165 -50.5164 -50.5152 -50.5150
   -49.8898 -49.8890 -49.8829 -49.8818 -49.8815 -49.8795 -49.8760 -49.8753
    -5.9659  -5.8606  -5.3490  -5.2433  -4.1544  -4.1145  -4.0082  -3.5573
    -3.0197  -2.4722  -2.4218  -2.4060  -2.3226  -1.7253  -1.6533  -1.4685
    -1.3310  -1.2340   0.1979   0.4623

     occupation numbers 
     1.0000   1.0000   1.0000   1.0000   1.0000   1.0000   1.0000   1.0000
     1.0000   1.0000   1.0000   1.0000   1.0000   1.0000   1.0000   1.0000
     1.0000   1.0000   1.0000   1.0000   1.0000   1.0000   1.0000   1.0589
     0.0000   0.0000   0.0000   0.0000   0.0000   0.0000   0.0000   0.0000
     0.0000   0.0000   0.0000   0.0000

          k = 0.0909-0.4500 0.0000 (128255 PWs)   bands (ev):

   -50.5244 -50.5242 -50.5226 -50.5225 -50.5161 -50.5160 -50.5156 -50.5154
   -49.8908 -49.8878 -49.8827 -49.8821 -49.8808 -49.8800 -49.8766 -49.8747
    -6.1618  -5.6250  -5.5387  -5.0173  -4.2953  -4.0403  -3.8004  -3.4204
    -3.0872  -2.6214  -2.5928  -2.1991  -2.1936  -2.1530  -2.1313  -1.7270
    -1.0215  -0.8203   0.1688   0.3956

     occupation numbers 
     1.0000   1.0000   1.0000   1.0000   1.0000   1.0000   1.0000   1.0000
     1.0000   1.0000   1.0000   1.0000   1.0000   1.0000   1.0000   1.0000
     1.0000   1.0000   1.0000   1.0000   1.0000   1.0000   1.0021   0.4895
     0.0000   0.0000   0.0000   0.0000   0.0000   0.0000   0.0000   0.0000
     0.0000   0.0000   0.0000   0.0000

          k = 0.0909-0.3536 0.0000 (128248 PWs)   bands (ev):

   -50.5257 -50.5255 -50.5214 -50.5212 -50.5170 -50.5168 -50.5147 -50.5145
   -49.8925 -49.8859 -49.8836 -49.8814 -49.8805 -49.8801 -49.8780 -49.8736
    -6.4050  -5.7792  -5.2271  -4.6365  -4.5349  -3.8839  -3.4636  -3.2440
    -3.1257  -2.8341  -2.7757  -2.6471  -2.5045  -2.0471  -1.9678  -1.9643
    -0.5018  -0.4151   0.1707   0.2706

     occupation numbers 
     1.0000   1.0000   1.0000   1.0000   1.0000   1.0000   1.0000   1.0000
     1.0000   1.0000   1.0000   1.0000   1.0000   1.0000   1.0000   1.0000
     1.0000   1.0000   1.0000   1.0000   1.0000   1.0001   0.7258   0.0156
     0.0003   0.0000   0.0000   0.0000   0.0000   0.0000   0.0000   0.0000
     0.0000   0.0000   0.0000   0.0000

          k = 0.0909-0.2571 0.0000 (128274 PWs)   bands (ev):

   -50.5268 -50.5266 -50.5203 -50.5201 -50.5178 -50.5177 -50.5138 -50.5137
   -49.8939 -49.8844 -49.8842 -49.8810 -49.8808 -49.8794 -49.8793 -49.8726
    -6.5898  -5.9631  -4.7743  -4.7208  -4.2154  -3.6923  -3.1451  -3.1276
    -3.1046  -3.0349  -3.0271  -2.8336  -2.8291  -2.2906  -2.0360  -1.7062
    -0.0413   0.0623   0.0679   0.1287

     occupation numbers 
     1.0000   1.0000   1.0000   1.0000   1.0000   1.0000   1.0000   1.0000
     1.0000   1.0000   1.0000   1.0000   1.0000   1.0000   1.0000   1.0000
     1.0000   1.0000   1.0000   1.0000   1.0000   1.0311   0.0006   0.0003
     0.0001   0.0000   0.0000   0.0000   0.0000   0.0000   0.0000   0.0000
     0.0000   0.0000   0.0000   0.0000

          k = 0.0909-0.1607 0.0000 (128233 PWs)   bands (ev):

   -50.5276 -50.5275 -50.5194 -50.5193 -50.5185 -50.5183 -50.5132 -50.5130
   -49.8949 -49.8851 -49.8827 -49.8811 -49.8808 -49.8805 -49.8788 -49.8719
    -6.7164  -6.0896  -4.8500  -4.2708  -3.7727  -3.4769  -3.4455  -3.1631
    -3.1542  -3.0302  -2.9323  -2.9103  -2.8035  -2.4572  -2.4178  -1.4327
    -0.0936  -0.0415   0.0271   0.0413

     occupation numbers 
     1.0000   1.0000   1.0000   1.0000   1.0000   1.0000   1.0000   1.0000
     1.0000   1.0000   1.0000   1.0000   1.0000   1.0000   1.0000   1.0000
     1.0000   1.0000   1.0000   1.0000   1.0048   0.7943   0.6271   0.0011
     0.0008   0.0000   0.0000   0.0000   0.0000   0.0000   0.0000   0.0000
     0.0000   0.0000   0.0000   0.0000

          k = 0.0909-0.0643 0.0000 (128178 PWs)   bands (ev):

   -50.5281 -50.5280 -50.5190 -50.5188 -50.5188 -50.5187 -50.5127 -50.5126
   -49.8955 -49.8855 -49.8815 -49.8814 -49.8810 -49.8809 -49.8784 -49.8714
    -6.7846  -6.1580  -4.9205  -3.7258  -3.7258  -3.3520  -3.3520  -3.2553
    -3.2379  -2.9538  -2.9538  -2.9475  -2.9475  -2.5673  -2.5469  -1.1582
    -0.1792  -0.1331  -0.0387   0.0031

     occupation numbers 
     1.0000   1.0000   1.0000   1.0000   1.0000   1.0000   1.0000   1.0000
     1.0000   1.0000   1.0000   1.0000   1.0000   1.0000   1.0000   1.0000
     1.0000   1.0000   1.0000   1.0158   1.0158   0.1854   0.1854   0.0214
     0.0131   0.0000   0.0000   0.0000   0.0000   0.0000   0.0000   0.0000
     0.0000   0.0000   0.0000   0.0000

          k = 0.1818 0.0643 0.0000 (128159 PWs)   bands (ev):

   -50.5277 -50.5275 -50.5197 -50.5195 -50.5184 -50.5182 -50.5129 -50.5128
   -49.8949 -49.8852 -49.8834 -49.8817 -49.8806 -49.8797 -49.8784 -49.8718
    -6.7069  -6.0808  -4.8422  -4.4752  -3.9521  -3.6488  -3.2615  -3.1587
    -3.1553  -3.0176  -2.8531  -2.8460  -2.4748  -2.4440  -2.2987  -1.0841
    -0.0832  -0.0284   0.0218   0.1072

     occupation numbers 
     1.0000   1.0000   1.0000   1.0000   1.0000   1.0000   1.0000   1.0000
     1.0000   1.0000   1.0000   1.0000   1.0000   1.0000   1.0000   1.0000
     1.0000   1.0000   1.0000   1.0000   1.0000   1.0594   0.0253   0.0009
     0.0008   0.0000   0.0000   0.0000   0.0000   0.0000   0.0000   0.0000
     0.0000   0.0000   0.0000   0.0000

          k = 0.1818 0.1607 0.0000 (128141 PWs)   bands (ev):

   -50.5274 -50.5272 -50.5197 -50.5195 -50.5187 -50.5185 -50.5130 -50.5128
   -49.8944 -49.8851 -49.8838 -49.8826 -49.8801 -49.8793 -49.8782 -49.8720
    -6.6387  -6.0135  -4.7746  -4.6179  -4.1966  -4.0720  -3.6887  -3.0845
    -3.0577  -2.8521  -2.8352  -2.3537  -2.3183  -2.1552  -2.1373  -0.7363
    -0.0126  -0.0005   0.0632   0.1226

     occupation numbers 
     1.0000   1.0000   1.0000   1.0000   1.0000   1.0000   1.0000   1.0000
     1.0000   1.0000   1.0000   1.0000   1.0000   1.0000   1.0000   1.0000
     1.0000   1.0000   1.0000   1.0000   1.0000   1.0000   1.0332   0.0000
     0.0000   0.0000   0.0000   0.0000   0.0000   0.0000   0.0000   0.0000
     0.0000   0.0000   0.0000   0.0000

          k = 0.1818 0.2571 0.0000 (128129 PWs)   bands (ev):

   -50.5267 -50.5266 -50.5194 -50.5193 -50.5192 -50.5192 -50.5132 -50.5131
   -49.8934 -49.8848 -49.8839 -49.8839 -49.8794 -49.8793 -49.8782 -49.8726
    -6.5118  -5.8877  -4.7005  -4.7005  -4.6477  -4.1339  -4.1339  -3.0518
    -3.0518  -2.9521  -2.6002  -2.1863  -1.9393  -1.9393  -1.8941  -0.4296
    -0.3660  -0.2242  -0.0081  -0.0070

     occupation numbers 
     1.0000   1.0000   1.0000   1.0000   1.0000   1.0000   1.0000   1.0000
     1.0000   1.0000   1.0000   1.0000   1.0000   1.0000   1.0000   1.0000
     1.0000   1.0000   1.0000   1.0000   1.0000   1.0000   1.0000   0.0000
     0.0000   0.0000   0.0000   0.0000   0.0000   0.0000   0.0000   0.0000
     0.0000   0.0000   0.0000   0.0000

          k = 0.1818 0.3536 0.0000 (128197 PWs)   bands (ev):

   -50.5258 -50.5256 -50.5203 -50.5201 -50.5188 -50.5187 -50.5138 -50.5136
   -49.8921 -49.8855 -49.8842 -49.8837 -49.8797 -49.8784 -49.8784 -49.8735
    -6.3261  -5.7036  -5.1526  -4.7250  -4.5553  -4.4630  -4.1395  -3.3713
    -2.9994  -2.7618  -2.4488  -1.9421  -1.8708  -1.7688  -1.7120  -1.0383
    -0.8226  -0.4074  -0.1738  -0.1090

     occupation numbers 
     1.0000   1.0000   1.0000   1.0000   1.0000   1.0000   1.0000   1.0000
     1.0000   1.0000   1.0000   1.0000   1.0000   1.0000   1.0000   1.0000
     1.0000   1.0000   1.0000   1.0000   1.0000   1.0000   1.0000   0.2550
     0.0000   0.0000   0.0000   0.0000   0.0000   0.0000   0.0000   0.0000
     0.0000   0.0000   0.0000   0.0000

          k = 0.1818 0.4500 0.0000 (128249 PWs)   bands (ev):

   -50.5246 -50.5244 -50.5215 -50.5213 -50.5181 -50.5179 -50.5145 -50.5144
   -49.8905 -49.8872 -49.8834 -49.8833 -49.8804 -49.8788 -49.8773 -49.8747
    -6.0814  -5.5493  -5.4621  -4.9357  -4.6932  -4.2234  -4.0905  -3.7082
    -2.9009  -2.5213  -2.4068  -2.0540  -1.8314  -1.6751  -1.6211  -1.4635
    -1.4077  -0.9254  -0.1783   0.1104

     occupation numbers 
     1.0000   1.0000   1.0000   1.0000   1.0000   1.0000   1.0000   1.0000
     1.0000   1.0000   1.0000   1.0000   1.0000   1.0000   1.0000   1.0000
     1.0000   1.0000   1.0000   1.0000   1.0000   1.0000   1.0000   1.0230
     0.0000   0.0000   0.0000   0.0000   0.0000   0.0000   0.0000   0.0000
     0.0000   0.0000   0.0000   0.0000

          k = 0.1818 0.5464 0.0000 (128326 PWs)   bands (ev):

   -50.5233 -50.5232 -50.5228 -50.5226 -50.5172 -50.5170 -50.5154 -50.5152
   -49.8890 -49.8886 -49.8827 -49.8826 -49.8812 -49.8792 -49.8762 -49.8761
    -5.8889  -5.7779  -5.2668  -5.1646  -4.6073  -4.0224  -3.9892  -3.9341
    -2.7569  -2.4359  -2.3221  -2.2864  -2.2479  -1.9870  -1.9471  -1.3708
    -1.2240  -1.1990  -0.1212   0.2851

     occupation numbers 
     1.0000   1.0000   1.0000   1.0000   1.0000   1.0000   1.0000   1.0000
     1.0000   1.0000   1.0000   1.0000   1.0000   1.0000   1.0000   1.0000
     1.0000   1.0000   1.0000   1.0000   1.0000   1.0000   1.0000   1.0000
     0.0000   0.0000   0.0000   0.0000   0.0000   0.0000   0.0000   0.0000
     0.0000   0.0000   0.0000   0.0000

          k = 0.1818-0.4178 0.0000 (128335 PWs)   bands (ev):

   -50.5241 -50.5240 -50.5220 -50.5218 -50.5164 -50.5163 -50.5162 -50.5160
   -49.8907 -49.8867 -49.8822 -49.8819 -49.8818 -49.8797 -49.8775 -49.8750
    -6.1709  -5.5447  -5.4163  -4.8138  -4.4696  -4.2956  -3.8378  -3.6064
    -2.8117  -2.5872  -2.5687  -2.5111  -2.4064  -2.2117  -1.9863  -1.7410
    -0.9206  -0.7518  -0.0800   0.4052

     occupation numbers 
     1.0000   1.0000   1.0000   1.0000   1.0000   1.0000   1.0000   1.0000
     1.0000   1.0000   1.0000   1.0000   1.0000   1.0000   1.0000   1.0000
     1.0000   1.0000   1.0000   1.0000   1.0000   1.0000   1.0006   1.0820
     0.0000   0.0000   0.0000   0.0000   0.0000   0.0000   0.0000   0.0000
     0.0000   0.0000   0.0000   0.0000

          k = 0.1818-0.3214 0.0000 (128355 PWs)   bands (ev):

   -50.5253 -50.5252 -50.5207 -50.5206 -50.5173 -50.5172 -50.5153 -50.5151
   -49.8923 -49.8848 -49.8831 -49.8813 -49.8810 -49.8802 -49.8790 -49.8739
    -6.3947  -5.7669  -4.9977  -4.5188  -4.4153  -4.2829  -3.6391  -3.2741
    -3.2637  -2.8704  -2.8149  -2.5107  -2.4348  -2.3384  -2.0351  -1.8534
    -0.6278  -0.2093  -0.0643   0.3033

     occupation numbers 
     1.0000   1.0000   1.0000   1.0000   1.0000   1.0000   1.0000   1.0000
     1.0000   1.0000   1.0000   1.0000   1.0000   1.0000   1.0000   1.0000
     1.0000   1.0000   1.0000   1.0000   1.0000   1.0000   1.0660   0.0351
     0.0268   0.0000   0.0000   0.0000   0.0000   0.0000   0.0000   0.0000
     0.0000   0.0000   0.0000   0.0000

          k = 0.1818-0.2250 0.0000 (128288 PWs)   bands (ev):

   -50.5264 -50.5262 -50.5197 -50.5195 -50.5182 -50.5180 -50.5144 -50.5142
   -49.8935 -49.8840 -49.8831 -49.8809 -49.8806 -49.8804 -49.8802 -49.8730
    -6.5602  -5.9323  -4.6872  -4.5249  -4.0510  -3.9802  -3.6713  -3.3966
    -3.2314  -2.9906  -2.9597  -2.6359  -2.5222  -2.2527  -2.0688  -2.0303
    -0.3220  -0.0524   0.1022   0.1681

     occupation numbers 
     1.0000   1.0000   1.0000   1.0000   1.0000   1.0000   1.0000   1.0000
     1.0000   1.0000   1.0000   1.0000   1.0000   1.0000   1.0000   1.0000
     1.0000   1.0000   1.0000   1.0000   1.0000   1.0000   1.0440   0.3668
     0.0108   0.0000   0.0000   0.0000   0.0000   0.0000   0.0000   0.0000
     0.0000   0.0000   0.0000   0.0000

          k = 0.1818-0.1286 0.0000 (128250 PWs)   bands (ev):

   -50.5272 -50.5270 -50.5190 -50.5188 -50.5188 -50.5188 -50.5137 -50.5135
   -49.8944 -49.8846 -49.8817 -49.8816 -49.8808 -49.8807 -49.8794 -49.8723
    -6.6675  -6.0400  -4.7981  -4.0032  -4.0032  -3.7794  -3.5326  -3.5326
    -3.1154  -3.1077  -2.8039  -2.8038  -2.4921  -2.4921  -2.3934  -1.7646
    -0.0312  -0.0220  -0.0106   0.0241

     occupation numbers 
     1.0000   1.0000   1.0000   1.0000   1.0000   1.0000   1.0000   1.0000
     1.0000   1.0000   1.0000   1.0000   1.0000   1.0000   1.0000   1.0000
     1.0000   1.0000   1.0000   1.0000   1.0000   1.0040   1.0103   1.0103
     0.0002   0.0001   0.0000   0.0000   0.0000   0.0000   0.0000   0.0000
     0.0000   0.0000   0.0000   0.0000

          k = 0.1818-0.0321 0.0000 (128233 PWs)   bands (ev):

   -50.5276 -50.5275 -50.5194 -50.5193 -50.5185 -50.5183 -50.5132 -50.5130
   -49.8949 -49.8851 -49.8827 -49.8811 -49.8808 -49.8805 -49.8788 -49.8719
    -6.7164  -6.0896  -4.8500  -4.2708  -3.7727  -3.4769  -3.4455  -3.1631
    -3.1542  -3.0302  -2.9323  -2.9103  -2.8035  -2.4572  -2.4178  -1.4327
    -0.0936  -0.0415   0.0271   0.0413

     occupation numbers 
     1.0000   1.0000   1.0000   1.0000   1.0000   1.0000   1.0000   1.0000
     1.0000   1.0000   1.0000   1.0000   1.0000   1.0000   1.0000   1.0000
     1.0000   1.0000   1.0000   1.0000   1.0048   0.7943   0.6271   0.0011
     0.0008   0.0000   0.0000   0.0000   0.0000   0.0000   0.0000   0.0000
     0.0000   0.0000   0.0000   0.0000

          k = 0.2727 0.0964 0.0000 (128149 PWs)   bands (ev):

   -50.5268 -50.5266 -50.5206 -50.5204 -50.5178 -50.5176 -50.5135 -50.5134
   -49.8937 -49.8850 -49.8846 -49.8815 -49.8808 -49.8788 -49.8786 -49.8726
    -6.5609  -5.9354  -4.9612  -4.6946  -4.3889  -3.6981  -3.2951  -3.2755
    -3.2450  -3.0007  -2.6413  -2.6350  -2.5070  -2.2514  -2.0108  -1.3214
    -0.1578   0.0256   0.0678   0.0942

     occupation numbers 
     1.0000   1.0000   1.0000   1.0000   1.0000   1.0000   1.0000   1.0000
     1.0000   1.0000   1.0000   1.0000   1.0000   1.0000   1.0000   1.0000
     1.0000   1.0000   1.0000   1.0000   1.0000   1.0279   0.0583   0.0364
     0.0161   0.0000   0.0000   0.0000   0.0000   0.0000   0.0000   0.0000
     0.0000   0.0000   0.0000   0.0000

          k = 0.2727 0.1928 0.0000 (128182 PWs)   bands (ev):

   -50.5265 -50.5263 -50.5206 -50.5204 -50.5181 -50.5180 -50.5135 -50.5134
   -49.8931 -49.8854 -49.8845 -49.8825 -49.8804 -49.8785 -49.8783 -49.8729
    -6.4730  -5.8489  -5.0869  -4.6085  -4.5017  -4.2361  -3.6946  -3.3508
    -2.9116  -2.8718  -2.7257  -2.2067  -2.1352  -1.9980  -1.9557  -0.9514
    -0.3916  -0.3191   0.1967   0.2263

     occupation numbers 
     1.0000   1.0000   1.0000   1.0000   1.0000   1.0000   1.0000   1.0000
     1.0000   1.0000   1.0000   1.0000   1.0000   1.0000   1.0000   1.0000
     1.0000   1.0000   1.0000   1.0000   1.0000   1.0000   1.0298   0.1815
     0.0000   0.0000   0.0000   0.0000   0.0000   0.0000   0.0000   0.0000
     0.0000   0.0000   0.0000   0.0000

          k = 0.2727 0.2893 0.0000 (128197 PWs)   bands (ev):

   -50.5258 -50.5256 -50.5203 -50.5201 -50.5188 -50.5187 -50.5138 -50.5136
   -49.8921 -49.8855 -49.8842 -49.8837 -49.8797 -49.8784 -49.8784 -49.8735
    -6.3261  -5.7036  -5.1526  -4.7250  -4.5553  -4.4630  -4.1395  -3.3713
    -2.9994  -2.7618  -2.4488  -1.9421  -1.8708  -1.7688  -1.7120  -1.0383
    -0.8226  -0.4074  -0.1738  -0.1090

     occupation numbers 
     1.0000   1.0000   1.0000   1.0000   1.0000   1.0000   1.0000   1.0000
     1.0000   1.0000   1.0000   1.0000   1.0000   1.0000   1.0000   1.0000
     1.0000   1.0000   1.0000   1.0000   1.0000   1.0000   1.0000   0.2550
     0.0000   0.0000   0.0000   0.0000   0.0000   0.0000   0.0000   0.0000
     0.0000   0.0000   0.0000   0.0000

          k = 0.2727 0.3857 0.0000 (128238 PWs)   bands (ev):

   -50.5248 -50.5247 -50.5199 -50.5197 -50.5196 -50.5196 -50.5143 -50.5142
   -49.8907 -49.8853 -49.8852 -49.8836 -49.8789 -49.8788 -49.8785 -49.8745
    -6.1199  -5.4998  -5.1596  -5.1596  -4.5511  -4.5511  -4.2598  -3.3376
    -3.3376  -2.5553  -2.0811  -1.7546  -1.7546  -1.7000  -1.6720  -1.3764
    -1.2876  -0.6226  -0.4213  -0.4213

     occupation numbers 
     1.0000   1.0000   1.0000   1.0000   1.0000   1.0000   1.0000   1.0000
     1.0000   1.0000   1.0000   1.0000   1.0000   1.0000   1.0000   1.0000
     1.0000   1.0000   1.0000   1.0000   1.0000   1.0000   1.0000   0.1426
     0.1426   0.0000   0.0000   0.0000   0.0000   0.0000   0.0000   0.0000
     0.0000   0.0000   0.0000   0.0000

          k = 0.2727 0.4821 0.0000 (128305 PWs)   bands (ev):

   -50.5237 -50.5235 -50.5209 -50.5208 -50.5190 -50.5189 -50.5151 -50.5149
   -49.8891 -49.8869 -49.8847 -49.8829 -49.8796 -49.8788 -49.8778 -49.8758
    -5.8542  -5.5378  -5.2381  -5.1095  -4.9171  -4.4904  -4.0017  -3.6735
    -3.2504  -2.3217  -2.3008  -1.9876  -1.8824  -1.8395  -1.6042  -1.3475
    -1.3254  -0.9145  -0.7097  -0.3606

     occupation numbers 
     1.0000   1.0000   1.0000   1.0000   1.0000   1.0000   1.0000   1.0000
     1.0000   1.0000   1.0000   1.0000   1.0000   1.0000   1.0000   1.0000
     1.0000   1.0000   1.0000   1.0000   1.0000   1.0000   1.0000   1.0426
     0.0187   0.0000   0.0000   0.0000   0.0000   0.0000   0.0000   0.0000
     0.0000   0.0000   0.0000   0.0000

          k = 0.2727 0.5785 0.0000 (128369 PWs)   bands (ev):

   -50.5224 -50.5223 -50.5222 -50.5220 -50.5181 -50.5180 -50.5160 -50.5158
   -49.8886 -49.8872 -49.8840 -49.8822 -49.8804 -49.8792 -49.8772 -49.8767
    -5.8585  -5.5294  -5.2318  -5.0035  -4.9202  -4.3748  -3.9776  -3.6951
    -3.1110  -2.8882  -2.4108  -2.2639  -2.0192  -1.8039  -1.7091  -1.4168
    -1.3341  -0.9027  -0.4317  -0.2258

     occupation numbers 
     1.0000   1.0000   1.0000   1.0000   1.0000   1.0000   1.0000   1.0000
     1.0000   1.0000   1.0000   1.0000   1.0000   1.0000   1.0000   1.0000
     1.0000   1.0000   1.0000   1.0000   1.0000   1.0000   1.0000   1.0296
     0.0001   0.0000   0.0000   0.0000   0.0000   0.0000   0.0000   0.0000
     0.0000   0.0000   0.0000   0.0000

          k = 0.2727-0.3857 0.0000 (128342 PWs)   bands (ev):

   -50.5235 -50.5233 -50.5211 -50.5209 -50.5171 -50.5170 -50.5170 -50.5167
   -49.8902 -49.8853 -49.8831 -49.8815 -49.8814 -49.8797 -49.8788 -49.8756
    -6.1212  -5.4921  -5.1461  -4.8429  -4.5494  -4.2366  -4.2058  -3.3934
    -3.3528  -2.9207  -2.8968  -2.5208  -2.0875  -1.8551  -1.7679  -1.6783
    -1.1910  -0.4057  -0.1753  -0.0184

     occupation numbers 
     1.0000   1.0000   1.0000   1.0000   1.0000   1.0000   1.0000   1.0000
     1.0000   1.0000   1.0000   1.0000   1.0000   1.0000   1.0000   1.0000
     1.0000   1.0000   1.0000   1.0000   1.0000   1.0000   1.0000   0.3516
     0.1878   0.0000   0.0000   0.0000   0.0000   0.0000   0.0000   0.0000
     0.0000   0.0000   0.0000   0.0000

          k = 0.2727-0.2893 0.0000 (128388 PWs)   bands (ev):

   -50.5247 -50.5245 -50.5199 -50.5197 -50.5180 -50.5178 -50.5161 -50.5159
   -49.8916 -49.8835 -49.8824 -49.8821 -49.8810 -49.8804 -49.8802 -49.8745
    -6.3258  -5.6962  -4.7059  -4.6294  -4.4434  -4.1322  -3.9851  -3.8349
    -3.3211  -3.0043  -2.7337  -2.6815  -2.4280  -1.9464  -1.9306  -1.7016
    -0.9280   0.0178   0.1547   0.2591

     occupation numbers 
     1.0000   1.0000   1.0000   1.0000   1.0000   1.0000   1.0000   1.0000
     1.0000   1.0000   1.0000   1.0000   1.0000   1.0000   1.0000   1.0000
     1.0000   1.0000   1.0000   1.0000   1.0000   1.0000   1.0000   1.0007
     0.1031   0.0000   0.0000   0.0000   0.0000   0.0000   0.0000   0.0000
     0.0000   0.0000   0.0000   0.0000

          k = 0.2727-0.1928 0.0000 (128410 PWs)   bands (ev):

   -50.5257 -50.5255 -50.5190 -50.5188 -50.5188 -50.5188 -50.5152 -50.5150
   -49.8928 -49.8833 -49.8819 -49.8817 -49.8811 -49.8807 -49.8806 -49.8736
    -6.4722  -5.8431  -4.5943  -4.3647  -4.2120  -4.2120  -3.7145  -3.6824
    -3.6823  -2.8920  -2.7201  -2.7201  -2.3962  -2.1379  -1.9938  -1.9938
    -0.6332   0.1654   0.1654   0.2132

     occupation numbers 
     1.0000   1.0000   1.0000   1.0000   1.0000   1.0000   1.0000   1.0000
     1.0000   1.0000   1.0000   1.0000   1.0000   1.0000   1.0000   1.0000
     1.0000   1.0000   1.0000   1.0000   1.0000   1.0000   1.0202   1.0369
     1.0370   0.0000   0.0000   0.0000   0.0000   0.0000   0.0000   0.0000
     0.0000   0.0000   0.0000   0.0000

          k = 0.2727-0.0964 0.0000 (128288 PWs)   bands (ev):

   -50.5264 -50.5262 -50.5197 -50.5195 -50.5182 -50.5180 -50.5144 -50.5142
   -49.8935 -49.8840 -49.8831 -49.8809 -49.8806 -49.8804 -49.8802 -49.8730
    -6.5602  -5.9323  -4.6872  -4.5249  -4.0510  -3.9802  -3.6713  -3.3966
    -3.2314  -2.9906  -2.9597  -2.6359  -2.5222  -2.2527  -2.0688  -2.0303
    -0.3220  -0.0524   0.1022   0.1681

     occupation numbers 
     1.0000   1.0000   1.0000   1.0000   1.0000   1.0000   1.0000   1.0000
     1.0000   1.0000   1.0000   1.0000   1.0000   1.0000   1.0000   1.0000
     1.0000   1.0000   1.0000   1.0000   1.0000   1.0000   1.0440   0.3668
     0.0108   0.0000   0.0000   0.0000   0.0000   0.0000   0.0000   0.0000
     0.0000   0.0000   0.0000   0.0000

          k = 0.2727-0.0000 0.0000 (128274 PWs)   bands (ev):

   -50.5268 -50.5266 -50.5203 -50.5201 -50.5178 -50.5177 -50.5138 -50.5137
   -49.8939 -49.8844 -49.8842 -49.8810 -49.8808 -49.8794 -49.8793 -49.8726
    -6.5898  -5.9631  -4.7743  -4.7208  -4.2154  -3.6923  -3.1451  -3.1276
    -3.1046  -3.0349  -3.0271  -2.8336  -2.8291  -2.2906  -2.0360  -1.7062
    -0.0413   0.0623   0.0679   0.1287

     occupation numbers 
     1.0000   1.0000   1.0000   1.0000   1.0000   1.0000   1.0000   1.0000
     1.0000   1.0000   1.0000   1.0000   1.0000   1.0000   1.0000   1.0000
     1.0000   1.0000   1.0000   1.0000   1.0000   1.0311   0.0006   0.0003
     0.0001   0.0000   0.0000   0.0000   0.0000   0.0000   0.0000   0.0000
     0.0000   0.0000   0.0000   0.0000

          k = 0.3636 0.1286 0.0000 (128143 PWs)   bands (ev):

   -50.5257 -50.5255 -50.5217 -50.5215 -50.5170 -50.5169 -50.5143 -50.5142
   -49.8922 -49.8867 -49.8838 -49.8813 -49.8811 -49.8794 -49.8774 -49.8736
    -6.3564  -5.7327  -5.3949  -4.7964  -4.4909  -3.6959  -3.6040  -3.4346
    -3.1874  -2.8038  -2.7910  -2.4040  -2.0966  -2.0415  -1.9821  -1.5891
    -0.7190  -0.5368   0.1795   0.3276

     occupation numbers 
     1.0000   1.0000   1.0000   1.0000   1.0000   1.0000   1.0000   1.0000
     1.0000   1.0000   1.0000   1.0000   1.0000   1.0000   1.0000   1.0000
     1.0000   1.0000   1.0000   1.0000   1.0000   1.0292   1.0825   0.5669
     0.0026   0.0000   0.0000   0.0000   0.0000   0.0000   0.0000   0.0000
     0.0000   0.0000   0.0000   0.0000

          k = 0.3636 0.2250 0.0000 (128184 PWs)   bands (ev):

   -50.5253 -50.5251 -50.5217 -50.5216 -50.5174 -50.5172 -50.5143 -50.5141
   -49.8916 -49.8872 -49.8837 -49.8821 -49.8810 -49.8790 -49.8772 -49.8740
    -6.2487  -5.6270  -5.5019  -4.8958  -4.3869  -4.2210  -3.6853  -3.6499
    -2.9393  -2.6860  -2.5821  -2.3252  -2.0712  -1.8401  -1.6326  -1.3135
    -1.0484  -0.8603   0.2516   0.4330

     occupation numbers 
     1.0000   1.0000   1.0000   1.0000   1.0000   1.0000   1.0000   1.0000
     1.0000   1.0000   1.0000   1.0000   1.0000   1.0000   1.0000   1.0000
     1.0000   1.0000   1.0000   1.0000   1.0000   1.0000   1.0352   1.0587
     0.0000   0.0000   0.0000   0.0000   0.0000   0.0000   0.0000   0.0000
     0.0000   0.0000   0.0000   0.0000

          k = 0.3636 0.3214 0.0000 (128249 PWs)   bands (ev):

   -50.5246 -50.5244 -50.5215 -50.5213 -50.5181 -50.5179 -50.5145 -50.5144
   -49.8905 -49.8872 -49.8834 -49.8833 -49.8804 -49.8788 -49.8773 -49.8747
    -6.0814  -5.5493  -5.4621  -4.9357  -4.6932  -4.2234  -4.0905  -3.7082
    -2.9009  -2.5213  -2.4068  -2.0540  -1.8314  -1.6751  -1.6211  -1.4635
    -1.4077  -0.9254  -0.1783   0.1104

     occupation numbers 
     1.0000   1.0000   1.0000   1.0000   1.0000   1.0000   1.0000   1.0000
     1.0000   1.0000   1.0000   1.0000   1.0000   1.0000   1.0000   1.0000
     1.0000   1.0000   1.0000   1.0000   1.0000   1.0000   1.0000   1.0230
     0.0000   0.0000   0.0000   0.0000   0.0000   0.0000   0.0000   0.0000
     0.0000   0.0000   0.0000   0.0000

          k = 0.3636 0.4178 0.0000 (128305 PWs)   bands (ev):

   -50.5237 -50.5235 -50.5209 -50.5208 -50.5190 -50.5189 -50.5151 -50.5149
   -49.8891 -49.8869 -49.8847 -49.8829 -49.8796 -49.8788 -49.8778 -49.8758
    -5.8542  -5.5378  -5.2381  -5.1095  -4.9171  -4.4904  -4.0017  -3.6735
    -3.2504  -2.3217  -2.3008  -1.9876  -1.8824  -1.8395  -1.6042  -1.3475
    -1.3254  -0.9145  -0.7097  -0.3606

     occupation numbers 
     1.0000   1.0000   1.0000   1.0000   1.0000   1.0000   1.0000   1.0000
     1.0000   1.0000   1.0000   1.0000   1.0000   1.0000   1.0000   1.0000
     1.0000   1.0000   1.0000   1.0000   1.0000   1.0000   1.0000   1.0426
     0.0187   0.0000   0.0000   0.0000   0.0000   0.0000   0.0000   0.0000
     0.0000   0.0000   0.0000   0.0000

          k = 0.3636 0.5143 0.0000 (128404 PWs)   bands (ev):

   -50.5225 -50.5224 -50.5202 -50.5201 -50.5200 -50.5200 -50.5159 -50.5157
   -49.8874 -49.8863 -49.8863 -49.8823 -49.8791 -49.8786 -49.8786 -49.8771
    -5.5671  -5.4686  -5.4686  -4.9557  -4.8412  -4.8412  -3.7251  -3.5820
    -3.5820  -2.9145  -2.4027  -2.0337  -1.8704  -1.8704  -1.4272  -1.3553
    -0.9531  -0.8278  -0.8278  -0.6527

     occupation numbers 
     1.0000   1.0000   1.0000   1.0000   1.0000   1.0000   1.0000   1.0000
     1.0000   1.0000   1.0000   1.0000   1.0000   1.0000   1.0000   1.0000
     1.0000   1.0000   1.0000   1.0000   1.0000   1.0000   1.0161   1.0806
     1.0806   0.0000   0.0000   0.0000   0.0000   0.0000   0.0000   0.0000
     0.0000   0.0000   0.0000   0.0000

          k = 0.3636 0.6107 0.0000 (128397 PWs)   bands (ev):

   -50.5214 -50.5213 -50.5213 -50.5210 -50.5192 -50.5191 -50.5168 -50.5166
   -49.8879 -49.8856 -49.8854 -49.8816 -49.8795 -49.8795 -49.8786 -49.8775
    -5.7699  -5.3424  -5.2201  -5.1390  -4.7090  -4.6167  -3.8748  -3.4538
    -3.4352  -3.4000  -2.9165  -2.1482  -1.8809  -1.7431  -1.7023  -1.2211
    -1.1624  -0.6659  -0.5050  -0.3840

     occupation numbers 
     1.0000   1.0000   1.0000   1.0000   1.0000   1.0000   1.0000   1.0000
     1.0000   1.0000   1.0000   1.0000   1.0000   1.0000   1.0000   1.0000
     1.0000   1.0000   1.0000   1.0000   1.0000   1.0000   1.0002   0.6727
     0.5701   0.3835   0.0000   0.0000   0.0000   0.0000   0.0000   0.0000
     0.0000   0.0000   0.0000   0.0000

          k = 0.3636-0.3536 0.0000 (128394 PWs)   bands (ev):

   -50.5226 -50.5225 -50.5201 -50.5199 -50.5182 -50.5180 -50.5179 -50.5176
   -49.8893 -49.8844 -49.8837 -49.8810 -49.8805 -49.8803 -49.8800 -49.8764
    -6.0133  -5.3815  -5.1600  -4.8142  -4.5215  -4.2246  -4.1191  -3.9335
    -3.3808  -3.2345  -3.0413  -2.3946  -2.3096  -1.5390  -1.5010  -1.4850
    -1.3141  -0.4295  -0.0477   0.0164

     occupation numbers 
     1.0000   1.0000   1.0000   1.0000   1.0000   1.0000   1.0000   1.0000
     1.0000   1.0000   1.0000   1.0000   1.0000   1.0000   1.0000   1.0000
     1.0000   1.0000   1.0000   1.0000   1.0000   1.0000   1.0000   1.0000
     0.2944   0.0119   0.0000   0.0000   0.0000   0.0000   0.0000   0.0000
     0.0000   0.0000   0.0000   0.0000

          k = 0.3636-0.2571 0.0000 (128428 PWs)   bands (ev):

   -50.5238 -50.5236 -50.5190 -50.5188 -50.5188 -50.5188 -50.5171 -50.5169
   -49.8906 -49.8832 -49.8820 -49.8819 -49.8815 -49.8806 -49.8804 -49.8754
    -6.1986  -5.5675  -4.9221  -4.3511  -4.3511  -4.3095  -4.2798  -3.7871
    -3.7870  -2.9821  -2.6858  -2.6857  -2.5923  -1.7809  -1.5173  -1.5172
    -1.2232  -0.1203   0.1945   0.1945

     occupation numbers 
     1.0000   1.0000   1.0000   1.0000   1.0000   1.0000   1.0000   1.0000
     1.0000   1.0000   1.0000   1.0000   1.0000   1.0000   1.0000   1.0000
     1.0000   1.0000   1.0000   1.0000   1.0000   1.0000   1.0000   1.0032
[...]

   -50.5115 -50.5114 -50.5089 -50.5088 -50.5070 -50.5069 -50.5067 -50.5066
   -49.8901 -49.8852 -49.8848 -49.8824 -49.8822 -49.8815 -49.8812 -49.8781
    -6.0115  -5.3912  -5.1586  -4.8128  -4.5342  -4.2368  -4.1084  -3.9324
    -3.3944  -3.2205  -3.0304  -2.3800  -2.3001  -1.5232  -1.4940  -1.4717
    -1.3129  -0.4141  -0.0437   0.0303

     occupation numbers 
     1.0000   1.0000   1.0000   1.0000   1.0000   1.0000   1.0000   1.0000
     1.0000   1.0000   1.0000   1.0000   1.0000   1.0000   1.0000   1.0000
     1.0000   1.0000   1.0000   1.0000   1.0000   1.0000   1.0000   1.0000
     0.3535   0.0076   0.0000   0.0000   0.0000   0.0000   0.0000   0.0000
     0.0000   0.0000   0.0000   0.0000

          k = 0.4545-0.1286 0.0000 (128342 PWs)   bands (ev):

   -50.5124 -50.5123 -50.5100 -50.5099 -50.5060 -50.5059 -50.5059 -50.5058
   -49.8910 -49.8864 -49.8839 -49.8831 -49.8829 -49.8809 -49.8800 -49.8772
    -6.1194  -5.5013  -5.1446  -4.8418  -4.5609  -4.2265  -4.2195  -3.3925
    -3.3421  -2.9101  -2.9058  -2.5063  -2.0848  -1.8555  -1.7596  -1.6625
    -1.1787  -0.3913  -0.1889  -0.0033

     occupation numbers 
     1.0000   1.0000   1.0000   1.0000   1.0000   1.0000   1.0000   1.0000
     1.0000   1.0000   1.0000   1.0000   1.0000   1.0000   1.0000   1.0000
     1.0000   1.0000   1.0000   1.0000   1.0000   1.0000   1.0000   0.3445
     0.1535   0.0000   0.0000   0.0000   0.0000   0.0000   0.0000   0.0000
     0.0000   0.0000   0.0000   0.0000

          k = 0.4545-0.0321 0.0000 (128335 PWs)   bands (ev):

   -50.5130 -50.5129 -50.5109 -50.5108 -50.5052 -50.5052 -50.5051 -50.5050
   -49.8915 -49.8877 -49.8838 -49.8834 -49.8827 -49.8808 -49.8789 -49.8766
    -6.1690  -5.5537  -5.4147  -4.8246  -4.4686  -4.2859  -3.8525  -3.5960
    -2.8107  -2.5730  -2.5531  -2.5113  -2.4176  -2.2203  -1.9767  -1.7253
    -0.9105  -0.7371  -0.0810   0.4260

     occupation numbers 
     1.0000   1.0000   1.0000   1.0000   1.0000   1.0000   1.0000   1.0000
     1.0000   1.0000   1.0000   1.0000   1.0000   1.0000   1.0000   1.0000
     1.0000   1.0000   1.0000   1.0000   1.0000   1.0000   1.0004   1.0833
     0.0000   0.0000   0.0000   0.0000   0.0000   0.0000   0.0000   0.0000
     0.0000   0.0000   0.0000   0.0000

          k = 0.4545 0.0643 0.0000 (128255 PWs)   bands (ev):

   -50.5133 -50.5132 -50.5115 -50.5114 -50.5050 -50.5049 -50.5044 -50.5043
   -49.8916 -49.8888 -49.8843 -49.8836 -49.8817 -49.8811 -49.8780 -49.8763
    -6.1599  -5.6234  -5.5477  -5.0277  -4.2857  -4.0396  -3.7902  -3.4361
    -3.0867  -2.6336  -2.5789  -2.1945  -2.1840  -2.1423  -2.1353  -1.7114
    -1.0066  -0.8149   0.1780   0.4017

     occupation numbers 
     1.0000   1.0000   1.0000   1.0000   1.0000   1.0000   1.0000   1.0000
     1.0000   1.0000   1.0000   1.0000   1.0000   1.0000   1.0000   1.0000
     1.0000   1.0000   1.0000   1.0000   1.0000   1.0000   1.0030   0.5717
     0.0000   0.0000   0.0000   0.0000   0.0000   0.0000   0.0000   0.0000
     0.0000   0.0000   0.0000   0.0000

     the Fermi energy is    -3.4040 ev

!    total energy              =    -240.57590235 Ry
     total all-electron energy =      -240.576032 Ry
     estimated scf accuracy    <          5.6E-13 Ry

!    total charge of GC-SCF    =       0.95690842 e
     smearing contrib. (-TS)   =      -0.00010544 Ry
     internal energy E=F+TS    =    -240.57579691 Ry

     The total energy is F=E-TS. E is the sum of the following terms:
     one-electron contribution =   -2432.80219404 Ry
     hartree contribution      =    1189.04979066 Ry
     xc contribution           =     -57.07906127 Ry
     ewald contribution        =    1087.03841216 Ry
     one-center paw contrib.   =       1.41040045 Ry
      -> PAW hartree energy AE =       7.40992004 Ry
      -> PAW hartree energy PS =      -7.18758471 Ry
      -> PAW xc energy AE      =      -3.48398449 Ry
      -> PAW xc energy PS      =       3.34972534 Ry
      -> total E_H with PAW    =    1189.27212600 Ry
      -> total E_XC with PAW   =     -57.21332043 Ry
     pot.stat. contrib. (-muN) =      -0.23940833 Ry
     electrostatic embedding   =      -0.28379884 Ry
     cavitation energy         =       0.01235683 Ry
     electrolyte free energy   =      -0.00471730 Ry
     correction to one-el term =     -27.67757725 Ry

     WARNING: you are using the parabolic pbc correction;
              the potential shift above must be added to 
              band and Fermi energies.

     convergence has been achieved in  13 iterations
     The dielectric solvent contribution to forces
     atom    1 type  1   force =     0.00000003   -0.00000010   -0.03059279
     atom    2 type  1   force =    -0.00000000   -0.00000000   -0.01377814
     atom    3 type  1   force =     0.00000005    0.00000006    0.01377342
     atom    4 type  1   force =    -0.00000000    0.00000001    0.03059063
     atom    5 type  1   force =    -0.00000000    0.00000010   -0.03059548
     atom    6 type  1   force =     0.00000000   -0.00000000   -0.01377757
     atom    7 type  1   force =     0.00000006    0.00000000    0.01377413
     atom    8 type  1   force =    -0.00000000   -0.00000001    0.03058897
     atom    9 type  1   force =    -0.00000000   -0.00000010   -0.03059547
     atom   10 type  1   force =     0.00000000   -0.00000000   -0.01377796
     atom   11 type  1   force =    -0.00000006   -0.00000000    0.01377412
     atom   12 type  1   force =    -0.00000000    0.00000001    0.03058917
     atom   13 type  1   force =    -0.00000003    0.00000010   -0.03059279
     atom   14 type  1   force =     0.00000000    0.00000000   -0.01377800
     atom   15 type  1   force =    -0.00000005   -0.00000006    0.01377343
     atom   16 type  1   force =    -0.00000000   -0.00000001    0.03058961


     Forces acting on atoms (cartesian axes, Ry/au):

     atom    1 type  1   force =     0.00000035   -0.00000076    0.00015028
     atom    2 type  1   force =     0.00000000    0.00000000    0.00006919
     atom    3 type  1   force =     0.00000002    0.00000036   -0.00007527
     atom    4 type  1   force =     0.00000000    0.00000000   -0.00014257
     atom    5 type  1   force =    -0.00000028    0.00000055    0.00014737
     atom    6 type  1   force =     0.00000000    0.00000000    0.00007277
     atom    7 type  1   force =     0.00000101    0.00000028   -0.00007710
     atom    8 type  1   force =     0.00000000    0.00000000   -0.00014380
     atom    9 type  1   force =     0.00000028   -0.00000055    0.00014737
     atom   10 type  1   force =     0.00000000    0.00000000    0.00007327
     atom   11 type  1   force =    -0.00000101   -0.00000028   -0.00007710
     atom   12 type  1   force =     0.00000000    0.00000000   -0.00014190
     atom   13 type  1   force =    -0.00000035    0.00000076    0.00015028
     atom   14 type  1   force =     0.00000000    0.00000000    0.00006717
     atom   15 type  1   force =    -0.00000002   -0.00000036   -0.00007527
     atom   16 type  1   force =     0.00000000    0.00000000   -0.00014471
     The non-local contrib.  to forces
     atom    1 type  1   force =    -0.00000083   -0.00000027   -0.08169669
     atom    2 type  1   force =     0.00000000    0.00000000    0.00133585
     atom    3 type  1   force =     0.00000188   -0.00000043   -0.00134163
     atom    4 type  1   force =     0.00000000    0.00000000    0.08168882
     atom    5 type  1   force =     0.00000027    0.00000061   -0.08168463
     atom    6 type  1   force =     0.00000000    0.00000000    0.00133265
     atom    7 type  1   force =    -0.00000014    0.00000043   -0.00134256
     atom    8 type  1   force =     0.00000000    0.00000000    0.08169698
     atom    9 type  1   force =    -0.00000027   -0.00000061   -0.08168463
     atom   10 type  1   force =     0.00000000    0.00000000    0.00133582
     atom   11 type  1   force =     0.00000014   -0.00000043   -0.00134256
     atom   12 type  1   force =     0.00000000    0.00000000    0.08169631
     atom   13 type  1   force =     0.00000083    0.00000027   -0.08169669
     atom   14 type  1   force =     0.00000000    0.00000000    0.00133201
     atom   15 type  1   force =    -0.00000188    0.00000043   -0.00134163
     atom   16 type  1   force =     0.00000000    0.00000000    0.08169520
     The ionic contribution  to forces
     atom    1 type  1   force =     0.00000288   -0.00001434   -9.03955248
     atom    2 type  1   force =    -0.00000006   -0.00000007   -3.02205892
     atom    3 type  1   force =     0.00000947    0.00000728    3.02187273
     atom    4 type  1   force =    -0.00000005   -0.00000011    9.03926006
     atom    5 type  1   force =    -0.00000390    0.00001098   -9.03921496
     atom    6 type  1   force =     0.00000007    0.00000008   -3.02187260
     atom    7 type  1   force =     0.00002020    0.00000710    3.02203326
     atom    8 type  1   force =     0.00000004    0.00000012    9.03948169
     atom    9 type  1   force =     0.00000387   -0.00001100   -9.03921475
     atom   10 type  1   force =    -0.00000002   -0.00000005   -3.02196456
     atom   11 type  1   force =    -0.00002025   -0.00000713    3.02203336
     atom   12 type  1   force =    -0.00000001   -0.00000011    9.03948237
     atom   13 type  1   force =    -0.00000291    0.00001433   -9.03955266
     atom   14 type  1   force =     0.00000011    0.00000009   -3.02203897
     atom   15 type  1   force =    -0.00000953   -0.00000731    3.02187262
     atom   16 type  1   force =     0.00000007    0.00000014    9.03943381
     The local contribution  to forces
     atom    1 type  1   force =     0.00005385    0.00000340    9.15199266
     atom    2 type  1   force =     0.00005791   -0.00002187    3.03457701
     atom    3 type  1   force =     0.00004445   -0.00001627   -3.03438732
     atom    4 type  1   force =     0.00005735   -0.00002303   -9.15168331
     atom    5 type  1   force =     0.00005891   -0.00002171    9.15164542
     atom    6 type  1   force =     0.00010286   -0.00001644    3.03439694
     atom    7 type  1   force =     0.00003671   -0.00001693   -3.03454803
     atom    8 type  1   force =     0.00010407   -0.00001409   -9.15191265
     atom    9 type  1   force =     0.00005230    0.00000064    9.15164178
     atom   10 type  1   force =     0.00005867   -0.00002129    3.03448661
     atom   11 type  1   force =     0.00007503   -0.00000241   -3.03454924
     atom   12 type  1   force =     0.00005811   -0.00002245   -9.15191096
     atom   13 type  1   force =     0.00005737   -0.00002447    9.15199447
     atom   14 type  1   force =     0.00010362   -0.00001586    3.03455875
     atom   15 type  1   force =     0.00006730   -0.00000308   -3.03438550
     atom   16 type  1   force =     0.00010483   -0.00001293   -9.15186459
     The core correction contribution to forces
     atom    1 type  1   force =     0.00000000    0.00000000    0.00000000
     atom    2 type  1   force =     0.00000000    0.00000000    0.00000000
     atom    3 type  1   force =     0.00000000    0.00000000    0.00000000
     atom    4 type  1   force =     0.00000000    0.00000000    0.00000000
     atom    5 type  1   force =     0.00000000    0.00000000    0.00000000
     atom    6 type  1   force =     0.00000000    0.00000000    0.00000000
     atom    7 type  1   force =     0.00000000    0.00000000    0.00000000
     atom    8 type  1   force =     0.00000000    0.00000000    0.00000000
     atom    9 type  1   force =     0.00000000    0.00000000    0.00000000
     atom   10 type  1   force =     0.00000000    0.00000000    0.00000000
     atom   11 type  1   force =     0.00000000    0.00000000    0.00000000
     atom   12 type  1   force =     0.00000000    0.00000000    0.00000000
     atom   13 type  1   force =     0.00000000    0.00000000    0.00000000
     atom   14 type  1   force =     0.00000000    0.00000000    0.00000000
     atom   15 type  1   force =     0.00000000    0.00000000    0.00000000
     atom   16 type  1   force =     0.00000000    0.00000000    0.00000000
     The Hubbard contrib.    to forces
     atom    1 type  1   force =     0.00000000    0.00000000    0.00000000
     atom    2 type  1   force =     0.00000000    0.00000000    0.00000000
     atom    3 type  1   force =     0.00000000    0.00000000    0.00000000
     atom    4 type  1   force =     0.00000000    0.00000000    0.00000000
     atom    5 type  1   force =     0.00000000    0.00000000    0.00000000
     atom    6 type  1   force =     0.00000000    0.00000000    0.00000000
     atom    7 type  1   force =     0.00000000    0.00000000    0.00000000
     atom    8 type  1   force =     0.00000000    0.00000000    0.00000000
     atom    9 type  1   force =     0.00000000    0.00000000    0.00000000
     atom   10 type  1   force =     0.00000000    0.00000000    0.00000000
     atom   11 type  1   force =     0.00000000    0.00000000    0.00000000
     atom   12 type  1   force =     0.00000000    0.00000000    0.00000000
     atom   13 type  1   force =     0.00000000    0.00000000    0.00000000
     atom   14 type  1   force =     0.00000000    0.00000000    0.00000000
     atom   15 type  1   force =     0.00000000    0.00000000    0.00000000
     atom   16 type  1   force =     0.00000000    0.00000000    0.00000000
     The SCF correction term to forces
     atom    1 type  1   force =     0.00000000    0.00000002   -0.00000123
     atom    2 type  1   force =    -0.00000000   -0.00000000   -0.00000660
     atom    3 type  1   force =     0.00000002    0.00000002    0.00000668
     atom    4 type  1   force =     0.00000000   -0.00000000    0.00000124
     atom    5 type  1   force =     0.00000003    0.00000002   -0.00000126
     atom    6 type  1   force =    -0.00000000   -0.00000000   -0.00000665
     atom    7 type  1   force =     0.00000003   -0.00000001    0.00000668
     atom    8 type  1   force =    -0.00000000   -0.00000000    0.00000122
     atom    9 type  1   force =    -0.00000003   -0.00000002   -0.00000126
     atom   10 type  1   force =    -0.00000000   -0.00000000   -0.00000664
     atom   11 type  1   force =    -0.00000003    0.00000001    0.00000668
     atom   12 type  1   force =    -0.00000000    0.00000000    0.00000122
     atom   13 type  1   force =    -0.00000000   -0.00000002   -0.00000123
     atom   14 type  1   force =     0.00000000    0.00000000   -0.00000662
     atom   15 type  1   force =    -0.00000002   -0.00000002    0.00000668
     atom   16 type  1   force =     0.00000000    0.00000000    0.00000126

     Total force =     0.000462     Total SCF correction =     0.000019
     Energy error            =      5.3E-06 Ry
     Gradient error          =      1.5E-04 Ry/Bohr

     bfgs converged in   8 scf cycles and   7 bfgs steps
     (criteria: energy <  1.0E-05 Ry, force <  3.9E-04 Ry/Bohr)

     End of BFGS Geometry Optimization

     Final energy             =    -240.5759023525 Ry

     File ./Li/Lithium.bfgs deleted, as requested
Begin final coordinates

ATOMIC_POSITIONS (angstrom)
Li               0.9916067309        1.4024122154       20.0202747342
Li               1.9832882700        2.8047934300       22.3394874535
Li               0.9916618661        1.4023623575       24.7905260223
Li               1.9832882800        2.8047934500       27.1094672370
Li               0.0000322010        4.2072046238       20.0204551211
Li               0.9916443500        5.6095863900       22.3395494945
Li              -0.0000272786        4.2071617540       24.7905945299
Li               0.9916443300        5.6095863500       27.1095843522
Li               3.9665444190        1.4023818462       20.0204551811
Li               4.9582206700        2.8047934200       22.3395129372
Li               3.9666038886        1.4024246860       24.7905945499
Li               4.9582206800        2.8047934400       27.1095719296
Li               2.9749698891        4.2071742546       20.0202747042
Li               3.9665767500        5.6095863800       22.3395083966
Li               2.9749147439        4.2072240825       24.7905259923
Li               3.9665767300        5.6095863300       27.1095614210
End final coordinates



     Writing all to output data dir ./Li/Lithium.save/ :
     XML data file
     init_run     :      9.98s CPU     17.80s WALL (       1 calls)
     electrons    :   1520.86s CPU   1896.81s WALL (       8 calls)
     update_pot   :      0.34s CPU      0.44s WALL (       7 calls)
     forces       :     14.88s CPU     15.68s WALL (       8 calls)

     Called by init_run:
     wfcinit      :      1.73s CPU      2.38s WALL (       1 calls)
     wfcinit:wfcr :      1.65s CPU      2.30s WALL (      61 calls)
     potinit      :      0.65s CPU      0.69s WALL (       1 calls)
     hinit0       :      1.11s CPU      1.21s WALL (       1 calls)

     Called by electrons:
     c_bands      :   1267.32s CPU   1577.45s WALL (     113 calls)
     sum_band     :     90.92s CPU    126.07s WALL (     113 calls)
     v_of_rho     :      3.99s CPU      4.81s WALL (     114 calls)
     v_h          :      0.40s CPU      0.46s WALL (     114 calls)
     v_xc         :      3.58s CPU      4.34s WALL (     114 calls)
     newd         :      2.71s CPU      2.84s WALL (     114 calls)
     PAW_pot      :      0.85s CPU      1.12s WALL (     121 calls)
     mix_rho      :     11.99s CPU     18.20s WALL (     113 calls)

     Called by c_bands:
     init_us_2    :      4.83s CPU      5.50s WALL (   14762 calls)
     cegterg      :   1256.19s CPU   1564.13s WALL (    8031 calls)

     Called by sum_band:
     sum_band:wei :      0.24s CPU      0.26s WALL (     113 calls)
     sum_band:loo :     87.20s CPU    121.95s WALL (     113 calls)
     sum_band:buf :      0.70s CPU      0.90s WALL (    6893 calls)
     sum_band:ini :      1.86s CPU      2.29s WALL (    6893 calls)
     sum_band:cal :      9.15s CPU     11.85s WALL (    7320 calls)
     sum_band:bec :      0.27s CPU      0.34s WALL (    7320 calls)
     addusdens    :      2.61s CPU      2.67s WALL (     113 calls)
                                        0.00s GPU  (     113 calls)
     addusd:skk   :      0.35s CPU      0.36s WALL (     113 calls)
                                        0.00s GPU  (     113 calls)

     Called by *egterg:
     cdiaghg      :    306.55s CPU    328.70s WALL (   89643 calls)
     cegterg:over :     65.46s CPU     73.59s WALL (   82723 calls)
     cegterg:upda :     61.51s CPU     64.27s WALL (   82723 calls)
     cegterg:last :     14.49s CPU     14.82s WALL (    9925 calls)
     h_psi        :    752.55s CPU   1021.61s WALL (   90815 calls)
     s_psi        :     37.19s CPU     41.88s WALL (   90815 calls)
     g_psi        :      1.08s CPU      1.15s WALL (   82723 calls)

     Called by h_psi:
     h_psi:calbec :     66.62s CPU     84.33s WALL (   90815 calls)
     vloc_psi     :    638.18s CPU    881.25s WALL (   90815 calls)
                                        0.00s GPU  (   90815 calls)
     add_vuspsi   :     44.05s CPU     52.09s WALL (   90815 calls)

     General routines
     calbec       :     77.67s CPU     98.22s WALL (  100087 calls)
     fft          :      3.94s CPU      4.92s WALL (    1496 calls)
     ffts         :     10.08s CPU     15.25s WALL (   12281 calls)
     fftw         :    683.06s CPU    948.19s WALL ( 2277362 calls)
     interpolate  :      0.99s CPU      1.09s WALL (     114 calls)

     Parallel routines

     PAW routines
     PAW_pot      :      0.85s CPU      1.12s WALL (     121 calls)
     PAW_symme    :      0.05s CPU      0.06s WALL (     234 calls)

     Environ routines

     PWSCF        :  26m 1.14s CPU  32m28.81s WALL


   This run was terminated on:  20: 9: 5   1Jan2025            

=------------------------------------------------------------------------------=
   JOB DONE.
=------------------------------------------------------------------------------=
