
     Program PWSCF v.7.4 starts on 20Jan2025 at  4:23:43 

     This program is part of the open-source Quantum ESPRESSO suite
     for quantum simulation of materials; please cite
         "P. Giannozzi et al., J. Phys.:Condens. Matter 21 395502 (2009);
         "P. Giannozzi et al., J. Phys.:Condens. Matter 29 465901 (2017);
         "P. Giannozzi et al., J. Chem. Phys. 152 154105 (2020);
          URL http://www.quantum-espresso.org", 
     in publications or presentations arising from this work. More details at
     http://www.quantum-espresso.org/quote

     Parallel version (MPI & OpenMP), running on     384 processor cores
     Number of MPI processes:               384
     Threads/MPI process:                     1

     MPI processes distributed on     3 nodes
     491591 MiB available memory on the printing compute node when the environment starts

     Reading input from espresso.pwi
Warning: card &CELL ignored
Warning: card    PRESS_CONV_THR   = 0.1 ignored
Warning: card    CELL_DOFREE      = 'ALL' ignored
Warning: card / ignored
Warning: card &FCP ignored
Warning: card / ignored
Warning: card &RISM ignored
Warning: card / ignored

     Current dimensions of program PWSCF are:
     Max number of different atomic species (ntypx) = 10
     Max number of k-points (npk) =  40000
     Max angular momentum in pseudopotentials (lmaxx) =  4

     IMPORTANT: XC functional enforced from input :
     Exchange-correlation= PBE
                           (   1   4   3   4   0   0   0)
     Any further DFT definition will be discarded
     Please, verify this is what you really want


     Reading input from environ.in:
     * using ionic solvent mode
     * setting boundary derivatives method to SSCS default
     * setting electrolyte-boundary derivatives method to SSCS default

Environ Warning (1001): card EOF ignored

     
     Found identity + ( -0.5000  0.0000 -0.0000) symmetry
     This is a supercell, fractional translations are disabled

     K-points division:     npool     =       2
     R & G space division:  proc/nbgrp/npool/nimage =     192
     Subspace diagonalization in iterative solution of the eigenvalue problem:
     a serial algorithm will be used


     Parallelization info
     --------------------
     sticks:   dense  smooth     PW     G-vecs:    dense   smooth      PW
     Min          96      38     10                56184    14194    1882
     Max          97      39     11                56261    14243    1918
     Sum       18577    7447   1945             10795351  2731157  365513

     Using Slab Decomposition



     bravais-lattice index     =            4
     lattice parameter (alat)  =      18.3607  a.u.
     unit-cell volume          =   28251.3786 (a.u.)^3
     number of atoms/cell      =           48
     number of atomic types    =            1
     number of electrons       =       144.00
     number of Kohn-Sham states=          108
     kinetic-energy cutoff     =      80.0000  Ry
     charge density cutoff     =     800.0000  Ry
     scf convergence threshold =      1.0E-16
     mixing beta               =       0.2000
     number of iterations used =            8  local-TF  mixing
     Exchange-correlation= PBE
                           (   1   4   3   4   0   0   0)

     ================================================================================

                                  Environ Setup Summary

     ================================================================================

     Please cite

          O. Andreussi, I. Dabo and N. Marzari, J. Chem. Phys. 136, 064102 (2012)
          F. Nattino, M. Truscott, N. Marzari, and O. Andreussi, J. Chem. Phys. 150, 041722 (2019)

     in publications or presentations arising from this work.

     ================================================================================

     Parameters
     ==========

     compensation onset threshold      =               0.1000E+00
     static permittivity               =                    89.90
     surface tension in input (dyn/cm) =                    37.30
     surface tension in internal units =               0.4792E-04

     Solvent Boundary
     ================

     solvent mode                      =                    ionic
     derivatives method                =                   lowmem
     electrolyte derivatives method    =                   lowmem
     numerical core for derivatives    =                      fft
     switching function adopted        =                     SCCS
     density limit for vacuum region   =               0.5000E-02
     density limit for bulk solvent    =               0.1000E-03
     soft-sphere radius mode           =                    bondi
     soft-sphere softness              =                     0.50
     alpha                             =                     1.32

     Electrostatic Setup
     ===================

     electrostatic problem to solve    =                    modpb
     numerical solver adopted          =                   newton
     type of auxiliary density adopted =                     none
     numerical core for poisson        =                      fft
     adopting a nested solver scheme
     inner solver                      =                       cg
     inner core                        =                      fft
     type of pbc corrections           =                parabolic
     numerical core for corrections    =                      1da

     ================================================================================


     >>>>> Grand-Canonical SCF is activated <<<<<
     Initial Total Charge  =     0.000000 e
     Target Fermi Energy   =    -4.904000 eV
     Thr. of Fermi Energy  =     0.001000 eV
     Wave-shift of Kerker  =     0.400000 bohr^-1
     Wave-shift of Hartree =     1.500000 bohr^-1
     Mixing Rate of Fermi  =     0.050000

     celldm(1)=  18.360747  celldm(2)=   0.000000  celldm(3)=   5.270332
     celldm(4)=   0.000000  celldm(5)=   0.000000  celldm(6)=   0.000000

     crystal axes: (cart. coord. in units of alat)
               a(1) = (   1.000000   0.000000   0.000000 )  
               a(2) = (  -0.500000   0.866025   0.000000 )  
               a(3) = (   0.000000   0.000000   5.270332 )  

     reciprocal axes: (cart. coord. in units 2 pi/alat)
               b(1) = (  1.000000  0.577350 -0.000000 )  
               b(2) = (  0.000000  1.154701  0.000000 )  
               b(3) = (  0.000000 -0.000000  0.189741 )  


     PseudoPot. # 1 for Li read from file:
     /work/e89/e89/ba3g18/Repos/Pseudopotentials/Pslibrary/Li.pbe-sl-kjpaw_psl.1.0.0.UPF
     MD5 check sum: 3f4d2cafebb47c6c3aa8ed472e6f074d
     Pseudo is Projector augmented-wave, Zval =  3.0
     Generated using 'atomic' code by A. Dal Corso  v.7.4
     Shape of augmentation charge: PSQ
     Using radial grid of 1017 points,  4 beta functions with: 
                l(1) =   0
                l(2) =   0
                l(3) =   1
                l(4) =   1
     Q(r) pseudized with 0 coefficients 


     atomic species   valence    mass     pseudopotential
     Li                3.00     6.94000     Li( 1.00)

      2 Sym. Ops. (no inversion) found


                                    s                        frac. trans.

      isym =  1     identity                                     

 cryst.   s( 1) = (     1          0          0      )
                  (     0          1          0      )
                  (     0          0          1      )

 cart.    s( 1) = (  1.0000000  0.0000000  0.0000000 )
                  (  0.0000000  1.0000000  0.0000000 )
                  (  0.0000000  0.0000000  1.0000000 )


      isym =  2     inv. 180 deg rotation - cart. axis [1,0,0]   

 cryst.   s( 2) = (    -1          0          0      )
                  (     1          1          0      )
                  (     0          0          1      )

 cart.    s( 2) = ( -1.0000000  0.0000000  0.0000000 )
                  (  0.0000000  1.0000000  0.0000000 )
                  (  0.0000000  0.0000000  1.0000000 )


     point group C_s (m)    
     there are  2 classes
     the character table:

       E     s    
A'     1.00  1.00
A''    1.00 -1.00

     the symmetry operations in each class and the name of the first element:

     E        1
          identity                                               
     s        2
          inv. 180 deg rotation - cart. axis [1,0,0]             

   Cartesian axes

     site n.     atom                  positions (alat units)
         1        Li     tau(   1) = (  -0.0000000  -0.0000010   2.5919067  )
         2        Li     tau(   2) = (   0.2500014   0.1443438   2.1844341  )
         3        Li     tau(   3) = (   0.5000000   0.2886748   2.3624601  )
         4        Li     tau(   4) = (   0.0000000  -0.0000002   2.2853998  )
         5        Li     tau(   5) = (   0.2500004   0.1443393   2.4820293  )
         6        Li     tau(   6) = (   0.5000000   0.2886709   1.9738684  )
         7        Li     tau(   7) = (   0.0000000  -0.0000066   3.2965049  )
         8        Li     tau(   8) = (   0.2499999   0.1443369   2.7883036  )
         9        Li     tau(   9) = (   0.5000000   0.2886723   2.9849168  )
        10        Li     tau(  10) = (  -0.0000000  -0.0000018   2.9078665  )
        11        Li     tau(  11) = (   0.2499995   0.1443354   3.0858984  )
        12        Li     tau(  12) = (   0.5000000   0.2886746   2.6783964  )
        13        Li     tau(  13) = (   0.2500005   0.4330135   2.5919103  )
        14        Li     tau(  14) = (   0.5000000   0.5773470   2.1844261  )
        15        Li     tau(  15) = (   0.7499997   0.7216918   2.3624581  )
        16        Li     tau(  16) = (   0.2499992   0.4330172   2.2854110  )
        17        Li     tau(  17) = (   0.5000000   0.5773498   2.4820245  )
        18        Li     tau(  18) = (   0.7499997   0.7216972   1.9738909  )
        19        Li     tau(  19) = (   0.2499972   0.4330148   3.2964980  )
        20        Li     tau(  20) = (   0.5000000   0.5773492   2.7882982  )
        21        Li     tau(  21) = (   0.7499997   0.7216868   2.9849175  )
        22        Li     tau(  22) = (   0.2499996   0.4330115   2.9078676  )
        23        Li     tau(  23) = (   0.5000000   0.5773477   3.0858939  )
        24        Li     tau(  24) = (   0.7499991   0.7216888   2.6783967  )
        25        Li     tau(  25) = (   0.5000000   0.0000001   2.5919066  )
        26        Li     tau(  26) = (   0.7499986   0.1443438   2.1844341  )
        27        Li     tau(  27) = (   1.0000000   0.2886740   2.3624602  )
        28        Li     tau(  28) = (   0.5000000  -0.0000011   2.2854029  )
        29        Li     tau(  29) = (   0.7499995   0.1443393   2.4820293  )
        30        Li     tau(  30) = (   1.0000000   0.2886719   1.9738795  )
        31        Li     tau(  31) = (   0.5000000  -0.0000081   3.2964988  )
        32        Li     tau(  32) = (   0.7500001   0.1443369   2.7883036  )
        33        Li     tau(  33) = (   1.0000000   0.2886730   2.9849171  )
        34        Li     tau(  34) = (   0.5000000  -0.0000031   2.9078663  )
        35        Li     tau(  35) = (   0.7500005   0.1443354   3.0858984  )
        36        Li     tau(  36) = (   1.0000000   0.2886727   2.6783985  )
        37        Li     tau(  37) = (   0.7499995   0.4330135   2.5919103  )
        38        Li     tau(  38) = (   1.0000000   0.5773494   2.1844260  )
        39        Li     tau(  39) = (   1.2500003   0.7216918   2.3624581  )
        40        Li     tau(  40) = (   0.7500008   0.4330172   2.2854110  )
        41        Li     tau(  41) = (   1.0000000   0.5773509   2.4820211  )
        42        Li     tau(  42) = (   1.2500003   0.7216972   1.9738909  )
        43        Li     tau(  43) = (   0.7500028   0.4330148   3.2964980  )
        44        Li     tau(  44) = (   1.0000000   0.5773486   2.7882989  )
        45        Li     tau(  45) = (   1.2500003   0.7216868   2.9849175  )
        46        Li     tau(  46) = (   0.7500004   0.4330115   2.9078676  )
        47        Li     tau(  47) = (   1.0000000   0.5773486   3.0858908  )
        48        Li     tau(  48) = (   1.2500009   0.7216888   2.6783967  )

   Crystallographic axes

     site n.     atom                  positions (cryst. coord.)
         1        Li     tau(   1) = ( -0.0000006 -0.0000011  0.4917919  )
         2        Li     tau(   2) = (  0.3333383  0.1666738  0.4144775  )
         3        Li     tau(   3) = (  0.6666665  0.3333329  0.4482564  )
         4        Li     tau(   4) = ( -0.0000001 -0.0000002  0.4336349  )
         5        Li     tau(   5) = (  0.3333348  0.1666687  0.4709436  )
         6        Li     tau(   6) = (  0.6666642  0.3333285  0.3745245  )
         7        Li     tau(   7) = ( -0.0000038 -0.0000076  0.6254834  )
         8        Li     tau(   8) = (  0.3333328  0.1666659  0.5290565  )
         9        Li     tau(   9) = (  0.6666650  0.3333300  0.5663622  )
        10        Li     tau(  10) = ( -0.0000010 -0.0000020  0.5517426  )
        11        Li     tau(  11) = (  0.3333316  0.1666641  0.5855226  )
        12        Li     tau(  12) = (  0.6666663  0.3333327  0.5082026  )
        13        Li     tau(  13) = (  0.5000010  0.5000009  0.4917926  )
        14        Li     tau(  14) = (  0.8333314  0.6666629  0.4144760  )
        15        Li     tau(  15) = (  1.1666687  0.8333380  0.4482560  )
        16        Li     tau(  16) = (  0.5000018  0.5000052  0.4336370  )
        17        Li     tau(  17) = (  0.8333331  0.6666661  0.4709427  )
        18        Li     tau(  18) = (  1.1666718  0.8333441  0.3745287  )
        19        Li     tau(  19) = (  0.4999985  0.5000025  0.6254820  )
        20        Li     tau(  20) = (  0.8333327  0.6666655  0.5290555  )
        21        Li     tau(  21) = (  1.1666657  0.8333321  0.5663623  )
        22        Li     tau(  22) = (  0.4999989  0.4999987  0.5517428  )
        23        Li     tau(  23) = (  0.8333319  0.6666637  0.5855217  )
        24        Li     tau(  24) = (  1.1666663  0.8333344  0.5082027  )
        25        Li     tau(  25) = (  0.5000000  0.0000001  0.4917919  )
        26        Li     tau(  26) = (  0.8333355  0.1666738  0.4144775  )
        27        Li     tau(  27) = (  1.1666660  0.3333321  0.4482564  )
        28        Li     tau(  28) = (  0.4999993 -0.0000013  0.4336355  )
        29        Li     tau(  29) = (  0.8333339  0.1666687  0.4709436  )
        30        Li     tau(  30) = (  1.1666648  0.3333296  0.3745266  )
        31        Li     tau(  31) = (  0.4999953 -0.0000094  0.6254822  )
        32        Li     tau(  32) = (  0.8333331  0.1666659  0.5290565  )
        33        Li     tau(  33) = (  1.1666654  0.3333309  0.5663623  )
        34        Li     tau(  34) = (  0.4999982 -0.0000035  0.5517425  )
        35        Li     tau(  35) = (  0.8333325  0.1666641  0.5855226  )
        36        Li     tau(  36) = (  1.1666653  0.3333305  0.5082030  )
        37        Li     tau(  37) = (  1.0000000  0.5000009  0.4917926  )
        38        Li     tau(  38) = (  1.3333328  0.6666657  0.4144760  )
        39        Li     tau(  39) = (  1.6666693  0.8333380  0.4482560  )
        40        Li     tau(  40) = (  1.0000034  0.5000052  0.4336370  )
        41        Li     tau(  41) = (  1.3333337  0.6666674  0.4709421  )
        42        Li     tau(  42) = (  1.6666723  0.8333441  0.3745287  )
        43        Li     tau(  43) = (  1.0000040  0.5000025  0.6254820  )
        44        Li     tau(  44) = (  1.3333324  0.6666648  0.5290557  )
        45        Li     tau(  45) = (  1.6666664  0.8333321  0.5663623  )
        46        Li     tau(  46) = (  0.9999997  0.4999987  0.5517428  )
        47        Li     tau(  47) = (  1.3333324  0.6666648  0.5855211  )
        48        Li     tau(  48) = (  1.6666681  0.8333345  0.5082027  )

     number of k points=    16  Marzari-Vanderbilt smearing, width (Ry)=  0.0100
                       cart. coord. in units 2pi/alat
        k(    1) = (   0.0000000   0.0000000   0.0000000), wk =   0.0408163
        k(    2) = (   0.0000000   0.1649572   0.0000000), wk =   0.0816327
        k(    3) = (   0.0000000   0.3299144   0.0000000), wk =   0.0816327
        k(    4) = (   0.0000000   0.4948717   0.0000000), wk =   0.0816327
        k(    5) = (   0.1428571   0.2474358   0.0000000), wk =   0.1632653
        k(    6) = (   0.1428571   0.4123930   0.0000000), wk =   0.1632653
        k(    7) = (   0.1428571   0.5773503   0.0000000), wk =   0.0816327
        k(    8) = (   0.2857143   0.4948717   0.0000000), wk =   0.1632653
        k(    9) = (  -0.1428571   0.0824786   0.0000000), wk =   0.1632653
        k(   10) = (  -0.2857143   0.1649572   0.0000000), wk =   0.1632653
        k(   11) = (  -0.4285714   0.2474358   0.0000000), wk =   0.1632653
        k(   12) = (   0.2857143  -0.0000000   0.0000000), wk =   0.0816327
        k(   13) = (  -0.2857143   0.3299144   0.0000000), wk =   0.1632653
        k(   14) = (   0.4285714   0.0824786   0.0000000), wk =   0.1632653
        k(   15) = (  -0.4285714   0.4123930   0.0000000), wk =   0.1632653
        k(   16) = (   0.5714286  -0.0000000   0.0000000), wk =   0.0816327

                       cryst. coord.
        k(    1) = (   0.0000000   0.0000000   0.0000000), wk =   0.0408163
        k(    2) = (   0.0000000   0.1428571   0.0000000), wk =   0.0816327
        k(    3) = (   0.0000000   0.2857143   0.0000000), wk =   0.0816327
        k(    4) = (   0.0000000   0.4285714   0.0000000), wk =   0.0816327
        k(    5) = (   0.1428571   0.1428571   0.0000000), wk =   0.1632653
        k(    6) = (   0.1428571   0.2857143   0.0000000), wk =   0.1632653
        k(    7) = (   0.1428571   0.4285714   0.0000000), wk =   0.0816327
        k(    8) = (   0.2857143   0.2857143   0.0000000), wk =   0.1632653
        k(    9) = (  -0.1428571   0.1428571   0.0000000), wk =   0.1632653
        k(   10) = (  -0.2857143   0.2857143   0.0000000), wk =   0.1632653
        k(   11) = (  -0.4285714   0.4285714   0.0000000), wk =   0.1632653
        k(   12) = (   0.2857143  -0.1428571   0.0000000), wk =   0.0816327
        k(   13) = (  -0.2857143   0.4285714   0.0000000), wk =   0.1632653
        k(   14) = (   0.4285714  -0.1428571   0.0000000), wk =   0.1632653
        k(   15) = (  -0.4285714   0.5714286   0.0000000), wk =   0.1632653
        k(   16) = (   0.5714286  -0.2857143   0.0000000), wk =   0.0816327

     Dense  grid: 10795351 G-vectors     FFT dimensions: ( 180, 180, 900)

     Smooth grid:  2731157 G-vectors     FFT dimensions: ( 108, 108, 576)

     Dynamical RAM for                 wfc:       2.93 MB

     Dynamical RAM for     wfc (w. buffer):      26.36 MB

     Dynamical RAM for           str. fact:       0.86 MB

     Dynamical RAM for           local pot:       0.00 MB

     Dynamical RAM for          nlocal pot:      10.41 MB

     Dynamical RAM for                qrad:       0.65 MB

     Dynamical RAM for          rho,v,vnew:       6.28 MB

     Dynamical RAM for               rhoin:       2.09 MB

     Dynamical RAM for            rho*nmix:      13.73 MB

     Dynamical RAM for           G-vectors:       3.33 MB

     Dynamical RAM for          h,s,v(r/c):       8.54 MB

     Dynamical RAM for          <psi|beta>:       0.63 MB

     Dynamical RAM for                 psi:      11.71 MB

     Dynamical RAM for                hpsi:      11.71 MB

     Dynamical RAM for                spsi:      11.71 MB

     Dynamical RAM for      wfcinit/wfcrot:       6.12 MB

     Dynamical RAM for           addusdens:      39.47 MB

     Dynamical RAM for          addusforce:      79.84 MB

     Estimated static dynamical RAM per process >      57.87 MB

     Estimated max dynamical RAM per process >     164.72 MB

     Estimated total dynamical RAM >      54.21 GB

     Initial potential from superposition of free atoms

     starting charge     143.7788, renormalised to     144.0000

     negative rho (up, down):  4.473E-03 0.000E+00
     Starting wfcs are random
     Checking if some PAW data can be deallocated... 

     total cpu time spent up to now is       35.8 secs

     Self-consistent Calculation

     iteration #  1     ecut=    80.00 Ry     beta= 0.20
     Davidson diagonalization with overlap

---- Real-time Memory Report at c_bands before calling an iterative solver
          1124 MiB given to the printing process from OS
             0 MiB allocation reported by mallinfo(arena+hblkhd)
        473197 MiB available memory on the node where the printing process lives
------------------
     c_bands:  2 eigenvalues not converged
     c_bands:  1 eigenvalues not converged
     ethr =  1.00E-12,  avg # of iterations =137.9

     negative rho (up, down):  3.343E-03 0.000E+00

     total cpu time spent up to now is      273.1 secs

     total energy              =    -721.41035682 Ry
     estimated scf accuracy    <       0.22328575 Ry

     total charge of GC-SCF    =       0.19016149 e
     the Fermi energy          =      -4.32736698 eV
                        (error :       0.57663302 eV)
     electrostatic embedding   =       0.00000000 Ry
     cavitation energy         =       0.04794894 Ry
     electrolyte free energy   =       0.01215974 Ry
     correction to one-el term =      -0.00000000 Ry

     iteration #  2     ecut=    80.00 Ry     beta= 0.20
     Davidson diagonalization with overlap

---- Real-time Memory Report at c_bands before calling an iterative solver
          1124 MiB given to the printing process from OS
             0 MiB allocation reported by mallinfo(arena+hblkhd)
        465613 MiB available memory on the node where the printing process lives
------------------
     ethr =  1.00E-05,  avg # of iterations = 13.4

     negative rho (up, down):  2.533E-03 0.000E+00

     add environment contribution to local potential

     total cpu time spent up to now is      315.6 secs

     total energy              =    -721.74608017 Ry
     estimated scf accuracy    <       0.05124310 Ry

     total charge of GC-SCF    =       0.35961526 e
     the Fermi energy          =      -3.74298825 eV
                        (error :       1.16101175 eV)
     electrostatic embedding   =       0.00152253 Ry
     cavitation energy         =       0.04794894 Ry
     electrolyte free energy   =       0.01215974 Ry
     correction to one-el term =      -0.00000000 Ry

     iteration #  3     ecut=    80.00 Ry     beta= 0.20
     Davidson diagonalization with overlap

---- Real-time Memory Report at c_bands before calling an iterative solver
          1124 MiB given to the printing process from OS
             0 MiB allocation reported by mallinfo(arena+hblkhd)
        465096 MiB available memory on the node where the printing process lives
------------------
     ethr =  1.00E-05,  avg # of iterations = 25.9

     negative rho (up, down):  2.003E-03 0.000E+00

     add environment contribution to local potential

     total cpu time spent up to now is      372.3 secs

     total energy              =    -721.86638698 Ry
     estimated scf accuracy    <       0.02556347 Ry

     total charge of GC-SCF    =       0.57892974 e
     the Fermi energy          =      -2.97118555 eV
                        (error :       1.93281445 eV)
     electrostatic embedding   =      -0.04449459 Ry
     cavitation energy         =       0.04794894 Ry
     electrolyte free energy   =      -0.00542866 Ry
     correction to one-el term =      -9.87443863 Ry

     iteration #  4     ecut=    80.00 Ry     beta= 0.20
     Davidson diagonalization with overlap

---- Real-time Memory Report at c_bands before calling an iterative solver
          1124 MiB given to the printing process from OS
             0 MiB allocation reported by mallinfo(arena+hblkhd)
        464927 MiB available memory on the node where the printing process lives
------------------
     ethr =  1.00E-05,  avg # of iterations = 14.5

     negative rho (up, down):  1.574E-03 0.000E+00

     add environment contribution to local potential

     total cpu time spent up to now is      418.1 secs

     total energy              =    -721.76198802 Ry
     estimated scf accuracy    <       0.02231825 Ry

     total charge of GC-SCF    =       1.04160902 e
     the Fermi energy          =      -3.36759788 eV
                        (error :       1.53640212 eV)
     electrostatic embedding   =      -0.05667463 Ry
     cavitation energy         =       0.04794894 Ry
     electrolyte free energy   =      -0.00847132 Ry
     correction to one-el term =     -15.23374916 Ry

     iteration #  5     ecut=    80.00 Ry     beta= 0.20
     Davidson diagonalization with overlap

---- Real-time Memory Report at c_bands before calling an iterative solver
          1124 MiB given to the printing process from OS
             0 MiB allocation reported by mallinfo(arena+hblkhd)
        464834 MiB available memory on the node where the printing process lives
------------------
     ethr =  1.00E-05,  avg # of iterations =  7.0

     negative rho (up, down):  1.281E-03 0.000E+00

     add environment contribution to local potential

     total cpu time spent up to now is      451.9 secs

     total energy              =    -721.59529427 Ry
     estimated scf accuracy    <       0.01417846 Ry

     total charge of GC-SCF    =       2.23803073 e
     the Fermi energy          =      -3.30875325 eV
                        (error :       1.59524675 eV)
     electrostatic embedding   =      -0.12194935 Ry
     cavitation energy         =       0.04794894 Ry
     electrolyte free energy   =      -0.00841691 Ry
     correction to one-el term =     -26.89709195 Ry

     iteration #  6     ecut=    80.00 Ry     beta= 0.20
     Davidson diagonalization with overlap

---- Real-time Memory Report at c_bands before calling an iterative solver
          1124 MiB given to the printing process from OS
             0 MiB allocation reported by mallinfo(arena+hblkhd)
        464805 MiB available memory on the node where the printing process lives
------------------
     ethr =  1.00E-05,  avg # of iterations = 16.6

     negative rho (up, down):  1.235E-03 0.000E+00

     add environment contribution to local potential

     total cpu time spent up to now is      503.6 secs

     total energy              =    -722.22031411 Ry
     estimated scf accuracy    <       0.00995656 Ry

     total charge of GC-SCF    =       2.37860587 e
     the Fermi energy          =      -3.01281732 eV
                        (error :       1.89118268 eV)
     electrostatic embedding   =      -0.52788424 Ry
     cavitation energy         =       0.04794894 Ry
     electrolyte free energy   =      -0.01093634 Ry
     correction to one-el term =     -57.33434977 Ry

     iteration #  7     ecut=    80.00 Ry     beta= 0.20
     Davidson diagonalization with overlap

---- Real-time Memory Report at c_bands before calling an iterative solver
          1124 MiB given to the printing process from OS
             0 MiB allocation reported by mallinfo(arena+hblkhd)
        464685 MiB available memory on the node where the printing process lives
------------------
     ethr =  7.03E-06,  avg # of iterations =  5.6

     negative rho (up, down):  1.955E-02 0.000E+00

     add environment contribution to local potential

     total cpu time spent up to now is      535.9 secs

     total energy              =    -722.28530276 Ry
     estimated scf accuracy    <       0.00868641 Ry

     total charge of GC-SCF    =       2.71203484 e
     the Fermi energy          =      -3.06338306 eV
                        (error :       1.84061694 eV)
     electrostatic embedding   =      -0.59276480 Ry
     cavitation energy         =       0.04794894 Ry
     electrolyte free energy   =      -0.01200696 Ry
     correction to one-el term =     -61.09861356 Ry

     iteration #  8     ecut=    80.00 Ry     beta= 0.20
     Davidson diagonalization with overlap

---- Real-time Memory Report at c_bands before calling an iterative solver
          1124 MiB given to the printing process from OS
             0 MiB allocation reported by mallinfo(arena+hblkhd)
        464633 MiB available memory on the node where the printing process lives
------------------
     ethr =  6.15E-06,  avg # of iterations = 14.0

     negative rho (up, down):  4.753E-02 0.000E+00

     add environment contribution to local potential

     total cpu time spent up to now is      582.7 secs

     total energy              =    -722.64537771 Ry
     estimated scf accuracy    <       0.02763725 Ry

     total charge of GC-SCF    =       3.05848904 e
     the Fermi energy          =      -2.80215371 eV
                        (error :       2.10184629 eV)
     electrostatic embedding   =      -0.78774038 Ry
     cavitation energy         =       0.04794894 Ry
     electrolyte free energy   =      -0.01364686 Ry
     correction to one-el term =     -67.49040108 Ry

     iteration #  9     ecut=    80.00 Ry     beta= 0.20
     Davidson diagonalization with overlap

---- Real-time Memory Report at c_bands before calling an iterative solver
          1124 MiB given to the printing process from OS
             0 MiB allocation reported by mallinfo(arena+hblkhd)
        464526 MiB available memory on the node where the printing process lives
------------------
     ethr =  6.15E-06,  avg # of iterations = 20.0

     negative rho (up, down):  4.697E-02 0.000E+00

     total cpu time spent up to now is      613.1 secs

     total energy              =    -722.99449518 Ry
     estimated scf accuracy    <       0.10931903 Ry

     total charge of GC-SCF    =       3.03814594 e
     the Fermi energy          =      -2.37240440 eV
                        (error :       2.53159560 eV)
     electrostatic embedding   =      -1.02435302 Ry
     cavitation energy         =       0.04794894 Ry
     electrolyte free energy   =      -0.01863989 Ry
     correction to one-el term =     -73.62247148 Ry

     iteration # 10     ecut=    80.00 Ry     beta= 0.20
     Davidson diagonalization with overlap

---- Real-time Memory Report at c_bands before calling an iterative solver
          1124 MiB given to the printing process from OS
             0 MiB allocation reported by mallinfo(arena+hblkhd)
        464272 MiB available memory on the node where the printing process lives
------------------
     ethr =  6.15E-06,  avg # of iterations = 10.9

     negative rho (up, down):  1.506E-01 0.000E+00

     total cpu time spent up to now is      629.3 secs

     total energy              =    -721.69884279 Ry
     estimated scf accuracy    <       0.11096025 Ry

     total charge of GC-SCF    =       3.87978421 e
     the Fermi energy          =      -2.29715772 eV
                        (error :       2.60684228 eV)
     electrostatic embedding   =      -1.01840911 Ry
     cavitation energy         =       0.04794894 Ry
     electrolyte free energy   =      -0.01863989 Ry
     correction to one-el term =     -73.63452217 Ry

     iteration # 11     ecut=    80.00 Ry     beta= 0.20
     Davidson diagonalization with overlap

---- Real-time Memory Report at c_bands before calling an iterative solver
          1124 MiB given to the printing process from OS
             0 MiB allocation reported by mallinfo(arena+hblkhd)
        464216 MiB available memory on the node where the printing process lives
------------------
     ethr =  6.15E-06,  avg # of iterations = 23.9

     negative rho (up, down):  3.392E-02 0.000E+00

     add environment contribution to local potential

     total cpu time spent up to now is      688.8 secs

     total energy              =    -721.80452697 Ry
     estimated scf accuracy    <       0.00694881 Ry

     total charge of GC-SCF    =       3.44147069 e
     the Fermi energy          =      -5.69605688 eV
                        (error :       0.79205688 eV)
     electrostatic embedding   =      -1.24428629 Ry
     cavitation energy         =       0.04794894 Ry
     electrolyte free energy   =      -0.01863989 Ry
     correction to one-el term =     -73.17602924 Ry

     iteration # 12     ecut=    80.00 Ry     beta= 0.20
     Davidson diagonalization with overlap

---- Real-time Memory Report at c_bands before calling an iterative solver
          1124 MiB given to the printing process from OS
             0 MiB allocation reported by mallinfo(arena+hblkhd)
        464182 MiB available memory on the node where the printing process lives
------------------
     ethr =  4.94E-06,  avg # of iterations = 28.4

     negative rho (up, down):  1.079E-01 0.000E+00

     add environment contribution to local potential

     total cpu time spent up to now is      751.9 secs

     total energy              =    -722.18516562 Ry
     estimated scf accuracy    <       0.00380772 Ry

     total charge of GC-SCF    =       3.82820696 e
     the Fermi energy          =      -3.31444040 eV
                        (error :       1.58955960 eV)
     electrostatic embedding   =      -1.19171268 Ry
     cavitation energy         =       0.04794894 Ry
     electrolyte free energy   =      -0.02197487 Ry
     correction to one-el term =     -88.44973516 Ry

     iteration # 13     ecut=    80.00 Ry     beta= 0.20
     Davidson diagonalization with overlap

---- Real-time Memory Report at c_bands before calling an iterative solver
          1124 MiB given to the printing process from OS
             0 MiB allocation reported by mallinfo(arena+hblkhd)
        464184 MiB available memory on the node where the printing process lives
------------------
     ethr =  2.72E-06,  avg # of iterations = 12.4

     negative rho (up, down):  1.152E-01 0.000E+00

     add environment contribution to local potential

     total cpu time spent up to now is      796.5 secs

     total energy              =    -722.32172101 Ry
     estimated scf accuracy    <       0.00364131 Ry

     total charge of GC-SCF    =       3.92639079 e
     the Fermi energy          =      -3.41517369 eV
                        (error :       1.48882631 eV)
     electrostatic embedding   =      -1.47293148 Ry
     cavitation energy         =       0.04794894 Ry
     electrolyte free energy   =      -0.02756144 Ry
     correction to one-el term =     -98.95121155 Ry

     iteration # 14     ecut=    80.00 Ry     beta= 0.20
     Davidson diagonalization with overlap

---- Real-time Memory Report at c_bands before calling an iterative solver
          1124 MiB given to the printing process from OS
             0 MiB allocation reported by mallinfo(arena+hblkhd)
        464174 MiB available memory on the node where the printing process lives
------------------
     ethr =  2.60E-06,  avg # of iterations = 13.2

     negative rho (up, down):  3.807E-02 0.000E+00

     add environment contribution to local potential

     total cpu time spent up to now is      840.3 secs

     total energy              =    -722.71433861 Ry
     estimated scf accuracy    <       0.00596987 Ry

     total charge of GC-SCF    =       3.29892232 e
     the Fermi energy          =      -3.30768131 eV
                        (error :       1.59631869 eV)
     electrostatic embedding   =      -1.56221950 Ry
     cavitation energy         =       0.04794894 Ry
     electrolyte free energy   =      -0.02868178 Ry
     correction to one-el term =    -102.11347874 Ry

     iteration # 15     ecut=    80.00 Ry     beta= 0.20
     Davidson diagonalization with overlap

---- Real-time Memory Report at c_bands before calling an iterative solver
          1124 MiB given to the printing process from OS
             0 MiB allocation reported by mallinfo(arena+hblkhd)
        464143 MiB available memory on the node where the printing process lives
------------------
     ethr =  2.60E-06,  avg # of iterations = 13.8

     negative rho (up, down):  5.453E-02 0.000E+00

     add environment contribution to local potential

     total cpu time spent up to now is      888.9 secs

     total energy              =    -721.98127255 Ry
     estimated scf accuracy    <       0.00505588 Ry

     total charge of GC-SCF    =       4.11522614 e
     the Fermi energy          =      -3.21923089 eV
                        (error :       1.68476911 eV)
     electrostatic embedding   =      -1.09652143 Ry
     cavitation energy         =       0.04794894 Ry
     electrolyte free energy   =      -0.01959443 Ry
     correction to one-el term =     -83.60411060 Ry

     iteration # 16     ecut=    80.00 Ry     beta= 0.20
     Davidson diagonalization with overlap

---- Real-time Memory Report at c_bands before calling an iterative solver
          1124 MiB given to the printing process from OS
             0 MiB allocation reported by mallinfo(arena+hblkhd)
        464180 MiB available memory on the node where the printing process lives
------------------
     ethr =  2.60E-06,  avg # of iterations = 14.6

     negative rho (up, down):  2.225E-02 0.000E+00

     add environment contribution to local potential

     total cpu time spent up to now is      939.8 secs

     total energy              =    -722.30230355 Ry
     estimated scf accuracy    <       0.00517309 Ry

     total charge of GC-SCF    =       4.20060338 e
     the Fermi energy          =      -3.41601071 eV
                        (error :       1.48798929 eV)
     electrostatic embedding   =      -1.74322680 Ry
     cavitation energy         =       0.04794894 Ry
     electrolyte free energy   =      -0.03332923 Ry
     correction to one-el term =    -110.12506414 Ry

     iteration # 17     ecut=    80.00 Ry     beta= 0.20
     Davidson diagonalization with overlap

---- Real-time Memory Report at c_bands before calling an iterative solver
          1124 MiB given to the printing process from OS
             0 MiB allocation reported by mallinfo(arena+hblkhd)
        464147 MiB available memory on the node where the printing process lives
------------------
     ethr =  2.60E-06,  avg # of iterations = 19.9

     negative rho (up, down):  1.252E-02 0.000E+00

     add environment contribution to local potential

     total cpu time spent up to now is      995.2 secs

     total energy              =    -722.37148782 Ry
     estimated scf accuracy    <       0.00338146 Ry

     total charge of GC-SCF    =       4.13468451 e
     the Fermi energy          =      -3.54647477 eV
                        (error :       1.35752523 eV)
     electrostatic embedding   =      -1.83159459 Ry
     cavitation energy         =       0.04794894 Ry
     electrolyte free energy   =      -0.03661770 Ry
     correction to one-el term =    -114.07947460 Ry

     iteration # 18     ecut=    80.00 Ry     beta= 0.20
     Davidson diagonalization with overlap

---- Real-time Memory Report at c_bands before calling an iterative solver
          1124 MiB given to the printing process from OS
             0 MiB allocation reported by mallinfo(arena+hblkhd)
        464165 MiB available memory on the node where the printing process lives
------------------
     ethr =  2.42E-06,  avg # of iterations =  8.1

     negative rho (up, down):  3.321E-02 0.000E+00

     add environment contribution to local potential

     total cpu time spent up to now is     1036.9 secs

     total energy              =    -722.05023935 Ry
     estimated scf accuracy    <       0.00413450 Ry

     total charge of GC-SCF    =       5.08221971 e
     the Fermi energy          =      -3.49799452 eV
                        (error :       1.40600548 eV)
     electrostatic embedding   =      -1.77721708 Ry
     cavitation energy         =       0.04794894 Ry
     electrolyte free energy   =      -0.03522506 Ry
     correction to one-el term =    -112.47525406 Ry

     iteration # 19     ecut=    80.00 Ry     beta= 0.20
     Davidson diagonalization with overlap

---- Real-time Memory Report at c_bands before calling an iterative solver
          1124 MiB given to the printing process from OS
             0 MiB allocation reported by mallinfo(arena+hblkhd)
        464191 MiB available memory on the node where the printing process lives
------------------
     ethr =  2.42E-06,  avg # of iterations = 29.6

     negative rho (up, down):  3.694E-02 0.000E+00

     add environment contribution to local potential

     total cpu time spent up to now is     1101.4 secs

     total energy              =    -722.28787955 Ry
     estimated scf accuracy    <       0.00135324 Ry

     total charge of GC-SCF    =       5.19955776 e
     the Fermi energy          =      -4.00867446 eV
                        (error :       0.89532554 eV)
     electrostatic embedding   =      -2.71279197 Ry
     cavitation energy         =       0.04794894 Ry
     electrolyte free energy   =      -0.05815166 Ry
     correction to one-el term =    -140.74471591 Ry

     iteration # 20     ecut=    80.00 Ry     beta= 0.20
     Davidson diagonalization with overlap

---- Real-time Memory Report at c_bands before calling an iterative solver
          1124 MiB given to the printing process from OS
             0 MiB allocation reported by mallinfo(arena+hblkhd)
        464203 MiB available memory on the node where the printing process lives
------------------
     ethr =  9.75E-07,  avg # of iterations = 14.2

     negative rho (up, down):  1.525E-01 0.000E+00

     add environment contribution to local potential

     total cpu time spent up to now is     1153.7 secs

     total energy              =    -722.17159469 Ry
     estimated scf accuracy    <       0.00130836 Ry

     total charge of GC-SCF    =       6.45742842 e
     the Fermi energy          =      -4.08297394 eV
                        (error :       0.82102606 eV)
     electrostatic embedding   =      -2.84396326 Ry
     cavitation energy         =       0.04794894 Ry
     electrolyte free energy   =      -0.06137453 Ry
     correction to one-el term =    -144.27693652 Ry

     iteration # 21     ecut=    80.00 Ry     beta= 0.20
     Davidson diagonalization with overlap

---- Real-time Memory Report at c_bands before calling an iterative solver
          1124 MiB given to the printing process from OS
             0 MiB allocation reported by mallinfo(arena+hblkhd)
        464184 MiB available memory on the node where the printing process lives
------------------
     ethr =  9.51E-07,  avg # of iterations = 28.9

     negative rho (up, down):  2.344E-01 0.000E+00

     add environment contribution to local potential

     total cpu time spent up to now is     1226.0 secs

     total energy              =    -722.28441479 Ry
     estimated scf accuracy    <       0.00269147 Ry

     total charge of GC-SCF    =       6.60038248 e
     the Fermi energy          =      -4.82456967 eV
                        (error :       0.07943033 eV)
     electrostatic embedding   =      -4.50277051 Ry
     cavitation energy         =       0.04794894 Ry
     electrolyte free energy   =      -0.10141771 Ry
     correction to one-el term =    -182.71199859 Ry

     iteration # 22     ecut=    80.00 Ry     beta= 0.20
     Davidson diagonalization with overlap

---- Real-time Memory Report at c_bands before calling an iterative solver
          1124 MiB given to the printing process from OS
             0 MiB allocation reported by mallinfo(arena+hblkhd)
        464160 MiB available memory on the node where the printing process lives
------------------
     ethr =  9.51E-07,  avg # of iterations = 11.1

     negative rho (up, down):  1.001E-01 0.000E+00

     add environment contribution to local potential

     total cpu time spent up to now is     1273.9 secs

     total energy              =    -722.30320568 Ry
     estimated scf accuracy    <       0.00294460 Ry

     total charge of GC-SCF    =       6.30241385 e
     the Fermi energy          =      -4.81759499 eV
                        (error :       0.08640501 eV)
     electrostatic embedding   =      -4.69635074 Ry
     cavitation energy         =       0.04794894 Ry
     electrolyte free energy   =      -0.10661616 Ry
     correction to one-el term =    -186.05614153 Ry

     iteration # 23     ecut=    80.00 Ry     beta= 0.20
     Davidson diagonalization with overlap

---- Real-time Memory Report at c_bands before calling an iterative solver
          1124 MiB given to the printing process from OS
             0 MiB allocation reported by mallinfo(arena+hblkhd)
        464185 MiB available memory on the node where the printing process lives
------------------
     ethr =  9.51E-07,  avg # of iterations = 10.6

     negative rho (up, down):  4.026E-02 0.000E+00

     add environment contribution to local potential

     total cpu time spent up to now is     1323.5 secs

     total energy              =    -722.28896949 Ry
     estimated scf accuracy    <       0.00204404 Ry

     total charge of GC-SCF    =       6.18334981 e
     the Fermi energy          =      -4.58865810 eV
                        (error :       0.31534190 eV)
     electrostatic embedding   =      -4.28069398 Ry
     cavitation energy         =       0.04794894 Ry
     electrolyte free energy   =      -0.09574892 Ry
     correction to one-el term =    -177.94536208 Ry

     iteration # 24     ecut=    80.00 Ry     beta= 0.20
     Davidson diagonalization with overlap

---- Real-time Memory Report at c_bands before calling an iterative solver
          1124 MiB given to the printing process from OS
             0 MiB allocation reported by mallinfo(arena+hblkhd)
        464205 MiB available memory on the node where the printing process lives
------------------
     ethr =  9.51E-07,  avg # of iterations = 12.1

     negative rho (up, down):  6.710E-03 0.000E+00

     add environment contribution to local potential

     total cpu time spent up to now is     1373.5 secs

     total energy              =    -722.34097812 Ry
     estimated scf accuracy    <       0.00135911 Ry

     total charge of GC-SCF    =       5.61165881 e
     the Fermi energy          =      -4.76381652 eV
                        (error :       0.14018348 eV)
     electrostatic embedding   =      -4.11459150 Ry
     cavitation energy         =       0.04794894 Ry
     electrolyte free energy   =      -0.09193422 Ry
     correction to one-el term =    -175.51067799 Ry

     iteration # 25     ecut=    80.00 Ry     beta= 0.20
     Davidson diagonalization with overlap

---- Real-time Memory Report at c_bands before calling an iterative solver
          1124 MiB given to the printing process from OS
             0 MiB allocation reported by mallinfo(arena+hblkhd)
        464210 MiB available memory on the node where the printing process lives
------------------
     ethr =  9.51E-07,  avg # of iterations = 19.8

     negative rho (up, down):  4.889E-03 0.000E+00

     add environment contribution to local potential

     total cpu time spent up to now is     1432.1 secs

     total energy              =    -722.27730224 Ry
     estimated scf accuracy    <       0.00045715 Ry

     total charge of GC-SCF    =       5.60953209 e
     the Fermi energy          =      -4.49785419 eV
                        (error :       0.40614581 eV)
     electrostatic embedding   =      -3.39432539 Ry
     cavitation energy         =       0.04794894 Ry
     electrolyte free energy   =      -0.07450907 Ry
     correction to one-el term =    -160.34596531 Ry

     iteration # 26     ecut=    80.00 Ry     beta= 0.20
     Davidson diagonalization with overlap

---- Real-time Memory Report at c_bands before calling an iterative solver
          1124 MiB given to the printing process from OS
             0 MiB allocation reported by mallinfo(arena+hblkhd)
        464172 MiB available memory on the node where the printing process lives
------------------
     ethr =  3.30E-07,  avg # of iterations = 12.9

     negative rho (up, down):  4.316E-03 0.000E+00

     add environment contribution to local potential

     total cpu time spent up to now is     1482.7 secs

     total energy              =    -722.26147327 Ry
     estimated scf accuracy    <       0.00034080 Ry

     total charge of GC-SCF    =       6.05864869 e
     the Fermi energy          =      -4.57733078 eV
                        (error :       0.32666922 eV)
     electrostatic embedding   =      -3.40311496 Ry
     cavitation energy         =       0.04794894 Ry
     electrolyte free energy   =      -0.07469797 Ry
     correction to one-el term =    -161.22039350 Ry

     iteration # 27     ecut=    80.00 Ry     beta= 0.20
     Davidson diagonalization with overlap

---- Real-time Memory Report at c_bands before calling an iterative solver
          1124 MiB given to the printing process from OS
             0 MiB allocation reported by mallinfo(arena+hblkhd)
        464147 MiB available memory on the node where the printing process lives
------------------
     ethr =  2.47E-07,  avg # of iterations = 23.6

     negative rho (up, down):  8.474E-03 0.000E+00

     add environment contribution to local potential

     total cpu time spent up to now is     1547.9 secs

     total energy              =    -722.27283169 Ry
     estimated scf accuracy    <       0.00016025 Ry

     total charge of GC-SCF    =       6.17707232 e
     the Fermi energy          =      -4.71640740 eV
                        (error :       0.18759260 eV)
     electrostatic embedding   =      -3.96090701 Ry
     cavitation energy         =       0.04794894 Ry
     electrolyte free energy   =      -0.08808772 Ry
     correction to one-el term =    -173.46233380 Ry

     iteration # 28     ecut=    80.00 Ry     beta= 0.20
     Davidson diagonalization with overlap

---- Real-time Memory Report at c_bands before calling an iterative solver
          1124 MiB given to the printing process from OS
             0 MiB allocation reported by mallinfo(arena+hblkhd)
        464162 MiB available memory on the node where the printing process lives
------------------
     ethr =  1.16E-07,  avg # of iterations = 35.6

     negative rho (up, down):  1.009E-02 0.000E+00

     add environment contribution to local potential

     total cpu time spent up to now is     1622.1 secs

     total energy              =    -722.27469141 Ry
     estimated scf accuracy    <       0.00016653 Ry

     total charge of GC-SCF    =       6.17325323 e
     the Fermi energy          =      -4.89192212 eV
                        (error :       0.01207788 eV)
     electrostatic embedding   =      -4.10469379 Ry
     cavitation energy         =       0.04794894 Ry
     electrolyte free energy   =      -0.09197232 Ry
     correction to one-el term =    -176.67818434 Ry

     iteration # 29     ecut=    80.00 Ry     beta= 0.20
     Davidson diagonalization with overlap

---- Real-time Memory Report at c_bands before calling an iterative solver
          1124 MiB given to the printing process from OS
             0 MiB allocation reported by mallinfo(arena+hblkhd)
        464157 MiB available memory on the node where the printing process lives
------------------
     ethr =  1.16E-07,  avg # of iterations = 10.1

     negative rho (up, down):  8.870E-03 0.000E+00

     add environment contribution to local potential

     total cpu time spent up to now is     1668.7 secs

     total energy              =    -722.27511834 Ry
     estimated scf accuracy    <       0.00007694 Ry

     total charge of GC-SCF    =       6.28432314 e
     the Fermi energy          =      -4.87095631 eV
                        (error :       0.03304369 eV)
     electrostatic embedding   =      -4.09994328 Ry
     cavitation energy         =       0.04794894 Ry
     electrolyte free energy   =      -0.09183672 Ry
     correction to one-el term =    -176.57335757 Ry

     iteration # 30     ecut=    80.00 Ry     beta= 0.20
     Davidson diagonalization with overlap

---- Real-time Memory Report at c_bands before calling an iterative solver
          1124 MiB given to the printing process from OS
             0 MiB allocation reported by mallinfo(arena+hblkhd)
        464131 MiB available memory on the node where the printing process lives
------------------
     ethr =  5.59E-08,  avg # of iterations = 12.4

     negative rho (up, down):  1.113E-03 0.000E+00

     add environment contribution to local potential

     total cpu time spent up to now is     1722.2 secs

     total energy              =    -722.27479512 Ry
     estimated scf accuracy    <       0.00001896 Ry

     total charge of GC-SCF    =       6.27929808 e
     the Fermi energy          =      -4.87960278 eV
                        (error :       0.02439722 eV)
     electrostatic embedding   =      -4.25792944 Ry
     cavitation energy         =       0.04794894 Ry
     electrolyte free energy   =      -0.09559833 Ry
     correction to one-el term =    -179.77217765 Ry

     iteration # 31     ecut=    80.00 Ry     beta= 0.20
     Davidson diagonalization with overlap

---- Real-time Memory Report at c_bands before calling an iterative solver
          1124 MiB given to the printing process from OS
             0 MiB allocation reported by mallinfo(arena+hblkhd)
        464125 MiB available memory on the node where the printing process lives
------------------
     ethr =  1.38E-08,  avg # of iterations = 22.6

     negative rho (up, down):  1.762E-03 0.000E+00

     add environment contribution to local potential

     total cpu time spent up to now is     1785.3 secs

     total energy              =    -722.27456924 Ry
     estimated scf accuracy    <       0.00001873 Ry

     total charge of GC-SCF    =       6.30608233 e
     the Fermi energy          =      -4.89849156 eV
                        (error :       0.00550844 eV)
     electrostatic embedding   =      -4.24948914 Ry
     cavitation energy         =       0.04794894 Ry
     electrolyte free energy   =      -0.09543385 Ry
     correction to one-el term =    -179.62138349 Ry

     iteration # 32     ecut=    80.00 Ry     beta= 0.20
     Davidson diagonalization with overlap

---- Real-time Memory Report at c_bands before calling an iterative solver
          1124 MiB given to the printing process from OS
             0 MiB allocation reported by mallinfo(arena+hblkhd)
        464109 MiB available memory on the node where the printing process lives
------------------
     ethr =  1.36E-08,  avg # of iterations = 15.2

     negative rho (up, down):  7.304E-04 0.000E+00

     add environment contribution to local potential

     total cpu time spent up to now is     1841.3 secs

     total energy              =    -722.27457303 Ry
     estimated scf accuracy    <       0.00000785 Ry

     total charge of GC-SCF    =       6.29633815 e
     the Fermi energy          =      -4.89687007 eV
                        (error :       0.00712993 eV)
     electrostatic embedding   =      -4.28614782 Ry
     cavitation energy         =       0.04794894 Ry
     electrolyte free energy   =      -0.09634992 Ry
     correction to one-el term =    -180.34267765 Ry

     iteration # 33     ecut=    80.00 Ry     beta= 0.20
     Davidson diagonalization with overlap

---- Real-time Memory Report at c_bands before calling an iterative solver
          1124 MiB given to the printing process from OS
             0 MiB allocation reported by mallinfo(arena+hblkhd)
        464076 MiB available memory on the node where the printing process lives
------------------
     ethr =  5.70E-09,  avg # of iterations = 13.6

     negative rho (up, down):  9.960E-04 0.000E+00

     add environment contribution to local potential

     total cpu time spent up to now is     1895.0 secs

     total energy              =    -722.27461458 Ry
     estimated scf accuracy    <       0.00000472 Ry

     total charge of GC-SCF    =       6.30505935 e
     the Fermi energy          =      -4.89083462 eV
                        (error :       0.01316538 eV)
     electrostatic embedding   =      -4.27413163 Ry
     cavitation energy         =       0.04794894 Ry
     electrolyte free energy   =      -0.09601951 Ry
     correction to one-el term =    -180.11056851 Ry

     iteration # 34     ecut=    80.00 Ry     beta= 0.20
     Davidson diagonalization with overlap

---- Real-time Memory Report at c_bands before calling an iterative solver
          1124 MiB given to the printing process from OS
             0 MiB allocation reported by mallinfo(arena+hblkhd)
        464109 MiB available memory on the node where the printing process lives
------------------
     ethr =  3.43E-09,  avg # of iterations = 25.5

     negative rho (up, down):  8.573E-04 0.000E+00

     add environment contribution to local potential

     total cpu time spent up to now is     1959.4 secs

     total energy              =    -722.27454024 Ry
     estimated scf accuracy    <       0.00000352 Ry

     total charge of GC-SCF    =       6.30828144 e
     the Fermi energy          =      -4.89626927 eV
                        (error :       0.00773073 eV)
     electrostatic embedding   =      -4.28465607 Ry
     cavitation energy         =       0.04794894 Ry
     electrolyte free energy   =      -0.09631498 Ry
     correction to one-el term =    -180.31222974 Ry

     iteration # 35     ecut=    80.00 Ry     beta= 0.20
     Davidson diagonalization with overlap

---- Real-time Memory Report at c_bands before calling an iterative solver
          1124 MiB given to the printing process from OS
             0 MiB allocation reported by mallinfo(arena+hblkhd)
        464087 MiB available memory on the node where the printing process lives
------------------
     ethr =  2.55E-09,  avg # of iterations = 10.4

     negative rho (up, down):  7.528E-04 0.000E+00

     add environment contribution to local potential

     total cpu time spent up to now is     2005.7 secs

     total energy              =    -722.27450097 Ry
     estimated scf accuracy    <       0.00000306 Ry

     total charge of GC-SCF    =       6.32236345 e
     the Fermi energy          =      -4.89795714 eV
                        (error :       0.00604286 eV)
     electrostatic embedding   =      -4.28976516 Ry
     cavitation energy         =       0.04794894 Ry
     electrolyte free energy   =      -0.09643133 Ry
     correction to one-el term =    -180.43168418 Ry

     iteration # 36     ecut=    80.00 Ry     beta= 0.20
     Davidson diagonalization with overlap

---- Real-time Memory Report at c_bands before calling an iterative solver
          1124 MiB given to the printing process from OS
             0 MiB allocation reported by mallinfo(arena+hblkhd)
        464062 MiB available memory on the node where the printing process lives
------------------
     ethr =  2.23E-09,  avg # of iterations = 13.6

     negative rho (up, down):  8.741E-04 0.000E+00

     add environment contribution to local potential

     total cpu time spent up to now is     2060.0 secs

     total energy              =    -722.27431693 Ry
     estimated scf accuracy    <       0.00000214 Ry

     total charge of GC-SCF    =       6.33666797 e
     the Fermi energy          =      -4.90848532 eV
                        (error :       0.00448532 eV)
     electrostatic embedding   =      -4.31128008 Ry
     cavitation energy         =       0.04794894 Ry
     electrolyte free energy   =      -0.09693826 Ry
     correction to one-el term =    -180.93265836 Ry

     iteration # 37     ecut=    80.00 Ry     beta= 0.20
     Davidson diagonalization with overlap

---- Real-time Memory Report at c_bands before calling an iterative solver
          1124 MiB given to the printing process from OS
             0 MiB allocation reported by mallinfo(arena+hblkhd)
        464011 MiB available memory on the node where the printing process lives
------------------
     ethr =  1.55E-09,  avg # of iterations = 11.9

     negative rho (up, down):  8.220E-04 0.000E+00

     add environment contribution to local potential

     total cpu time spent up to now is     2112.4 secs

     total energy              =    -722.27406720 Ry
     estimated scf accuracy    <       0.00000121 Ry

     total charge of GC-SCF    =       6.33434597 e
     the Fermi energy          =      -4.91744773 eV
                        (error :       0.01344773 eV)
     electrostatic embedding   =      -4.33214432 Ry
     cavitation energy         =       0.04794894 Ry
     electrolyte free energy   =      -0.09744534 Ry
     correction to one-el term =    -181.38728249 Ry

     iteration # 38     ecut=    80.00 Ry     beta= 0.20
     Davidson diagonalization with overlap

---- Real-time Memory Report at c_bands before calling an iterative solver
          1124 MiB given to the printing process from OS
             0 MiB allocation reported by mallinfo(arena+hblkhd)
        464051 MiB available memory on the node where the printing process lives
------------------
     ethr =  8.76E-10,  avg # of iterations = 13.0

     negative rho (up, down):  6.940E-04 0.000E+00

     add environment contribution to local potential

     total cpu time spent up to now is     2160.4 secs

     total energy              =    -722.27407928 Ry
     estimated scf accuracy    <       0.00000108 Ry

     total charge of GC-SCF    =       6.30701417 e
     the Fermi energy          =      -4.91640103 eV
                        (error :       0.01240103 eV)
     electrostatic embedding   =      -4.32910397 Ry
     cavitation energy         =       0.04794894 Ry
     electrolyte free energy   =      -0.09736535 Ry
     correction to one-el term =    -181.32941766 Ry

     iteration # 39     ecut=    80.00 Ry     beta= 0.20
     Davidson diagonalization with overlap

---- Real-time Memory Report at c_bands before calling an iterative solver
          1124 MiB given to the printing process from OS
             0 MiB allocation reported by mallinfo(arena+hblkhd)
        464049 MiB available memory on the node where the printing process lives
------------------
     ethr =  7.84E-10,  avg # of iterations = 22.8

     negative rho (up, down):  7.172E-04 0.000E+00

     add environment contribution to local potential

     total cpu time spent up to now is     2226.2 secs

     total energy              =    -722.27442754 Ry
     estimated scf accuracy    <       0.00000049 Ry

     total charge of GC-SCF    =       6.30649916 e
     the Fermi energy          =      -4.90134235 eV
                        (error :       0.00265765 eV)
     electrostatic embedding   =      -4.29063678 Ry
     cavitation energy         =       0.04794894 Ry
     electrolyte free energy   =      -0.09641076 Ry
     correction to one-el term =    -180.53320497 Ry

     iteration # 40     ecut=    80.00 Ry     beta= 0.20
     Davidson diagonalization with overlap

---- Real-time Memory Report at c_bands before calling an iterative solver
          1124 MiB given to the printing process from OS
             0 MiB allocation reported by mallinfo(arena+hblkhd)
        464049 MiB available memory on the node where the printing process lives
------------------
     ethr =  3.54E-10,  avg # of iterations =  9.1

     negative rho (up, down):  6.650E-04 0.000E+00

     add environment contribution to local potential

     total cpu time spent up to now is     2269.9 secs

     total energy              =    -722.27443828 Ry
     estimated scf accuracy    <       0.00000041 Ry

     total charge of GC-SCF    =       6.31323079 e
     the Fermi energy          =      -4.90105211 eV
                        (error :       0.00294789 eV)
     electrostatic embedding   =      -4.28991807 Ry
     cavitation energy         =       0.04794894 Ry
     electrolyte free energy   =      -0.09639298 Ry
     correction to one-el term =    -180.51884735 Ry

     iteration # 41     ecut=    80.00 Ry     beta= 0.20
     Davidson diagonalization with overlap

---- Real-time Memory Report at c_bands before calling an iterative solver
          1124 MiB given to the printing process from OS
             0 MiB allocation reported by mallinfo(arena+hblkhd)
        464052 MiB available memory on the node where the printing process lives
------------------
     ethr =  2.97E-10,  avg # of iterations = 21.8

     negative rho (up, down):  6.691E-04 0.000E+00

     add environment contribution to local potential

     total cpu time spent up to now is     2333.1 secs

     total energy              =    -722.27438529 Ry
     estimated scf accuracy    <       0.00000014 Ry

     total charge of GC-SCF    =       6.31385524 e
     the Fermi energy          =      -4.90343256 eV
                        (error :       0.00056744 eV)
     electrostatic embedding   =      -4.29917626 Ry
     cavitation energy         =       0.04794894 Ry
     electrolyte free energy   =      -0.09662389 Ry
     correction to one-el term =    -180.69825909 Ry

     iteration # 42     ecut=    80.00 Ry     beta= 0.20
     Davidson diagonalization with overlap

---- Real-time Memory Report at c_bands before calling an iterative solver
          1124 MiB given to the printing process from OS
             0 MiB allocation reported by mallinfo(arena+hblkhd)
        464020 MiB available memory on the node where the printing process lives
------------------
     ethr =  1.00E-10,  avg # of iterations = 14.0

     negative rho (up, down):  6.564E-04 0.000E+00

     add environment contribution to local potential

     total cpu time spent up to now is     2386.0 secs

     total energy              =    -722.27438645 Ry
     estimated scf accuracy    <       0.00000009 Ry

     total charge of GC-SCF    =       6.31445299 e
     the Fermi energy          =      -4.90351117 eV
                        (error :       0.00048883 eV)
     electrostatic embedding   =      -4.29985692 Ry
     cavitation energy         =       0.04794894 Ry
     electrolyte free energy   =      -0.09664410 Ry
     correction to one-el term =    -180.70737159 Ry

     iteration # 43     ecut=    80.00 Ry     beta= 0.20
     Davidson diagonalization with overlap

---- Real-time Memory Report at c_bands before calling an iterative solver
          1124 MiB given to the printing process from OS
             0 MiB allocation reported by mallinfo(arena+hblkhd)
        463992 MiB available memory on the node where the printing process lives
------------------
     ethr =  6.59E-11,  avg # of iterations = 14.8

     negative rho (up, down):  6.169E-04 0.000E+00

     add environment contribution to local potential

     total cpu time spent up to now is     2438.4 secs

     total energy              =    -722.27438473 Ry
     estimated scf accuracy    <       0.00000007 Ry

     total charge of GC-SCF    =       6.31500277 e
     the Fermi energy          =      -4.90361225 eV
                        (error :       0.00038775 eV)
     electrostatic embedding   =      -4.30063125 Ry
     cavitation energy         =       0.04794894 Ry
     electrolyte free energy   =      -0.09666430 Ry
     correction to one-el term =    -180.72064995 Ry

     iteration # 44     ecut=    80.00 Ry     beta= 0.20
     Davidson diagonalization with overlap

---- Real-time Memory Report at c_bands before calling an iterative solver
          1124 MiB given to the printing process from OS
             0 MiB allocation reported by mallinfo(arena+hblkhd)
        464033 MiB available memory on the node where the printing process lives
------------------
     ethr =  4.78E-11,  avg # of iterations = 18.9

     negative rho (up, down):  6.047E-04 0.000E+00

     add environment contribution to local potential

     total cpu time spent up to now is     2497.2 secs

     total energy              =    -722.27438081 Ry
     estimated scf accuracy    <       0.00000003 Ry

     total charge of GC-SCF    =       6.31479080 e
     the Fermi energy          =      -4.90378552 eV
                        (error :       0.00021448 eV)
     electrostatic embedding   =      -4.30157337 Ry
     cavitation energy         =       0.04794894 Ry
     electrolyte free energy   =      -0.09668410 Ry
     correction to one-el term =    -180.73963935 Ry

     iteration # 45     ecut=    80.00 Ry     beta= 0.20
     Davidson diagonalization with overlap

---- Real-time Memory Report at c_bands before calling an iterative solver
          1124 MiB given to the printing process from OS
             0 MiB allocation reported by mallinfo(arena+hblkhd)
        463995 MiB available memory on the node where the printing process lives
------------------
     ethr =  2.07E-11,  avg # of iterations = 15.1

     negative rho (up, down):  6.008E-04 0.000E+00

     add environment contribution to local potential

     total cpu time spent up to now is     2551.5 secs

     total energy              =    -722.27437906 Ry
     estimated scf accuracy    <       0.00000002 Ry

     total charge of GC-SCF    =       6.31381510 e
     the Fermi energy          =      -4.90392150 eV
                        (error :       0.00007850 eV)
     electrostatic embedding   =      -4.30139512 Ry
     cavitation energy         =       0.04794894 Ry
     electrolyte free energy   =      -0.09667748 Ry
     correction to one-el term =    -180.73781732 Ry

     iteration # 46     ecut=    80.00 Ry     beta= 0.20
     Davidson diagonalization with overlap

---- Real-time Memory Report at c_bands before calling an iterative solver
          1124 MiB given to the printing process from OS
             0 MiB allocation reported by mallinfo(arena+hblkhd)
        463994 MiB available memory on the node where the printing process lives
------------------
     ethr =  1.62E-11,  avg # of iterations = 19.3

     negative rho (up, down):  6.124E-04 0.000E+00

     add environment contribution to local potential

     total cpu time spent up to now is     2611.4 secs

     total energy              =    -722.27438611 Ry
     estimated scf accuracy    <       0.00000001 Ry

     total charge of GC-SCF    =       6.31318377 e
     the Fermi energy          =      -4.90358425 eV
                        (error :       0.00041575 eV)
     electrostatic embedding   =      -4.30014388 Ry
     cavitation energy         =       0.04794894 Ry
     electrolyte free energy   =      -0.09664417 Ry
     correction to one-el term =    -180.71374695 Ry

     iteration # 47     ecut=    80.00 Ry     beta= 0.20
     Davidson diagonalization with overlap

---- Real-time Memory Report at c_bands before calling an iterative solver
          1124 MiB given to the printing process from OS
             0 MiB allocation reported by mallinfo(arena+hblkhd)
        463965 MiB available memory on the node where the printing process lives
------------------
     ethr =  9.54E-12,  avg # of iterations = 16.9

     negative rho (up, down):  6.254E-04 0.000E+00

     add environment contribution to local potential

     total cpu time spent up to now is     2667.3 secs

     total energy              =    -722.27439049 Ry
     estimated scf accuracy    <          6.1E-09 Ry

     total charge of GC-SCF    =       6.31444258 e
     the Fermi energy          =      -4.90330212 eV
                        (error :       0.00069788 eV)
     electrostatic embedding   =      -4.29929388 Ry
     cavitation energy         =       0.04794894 Ry
     electrolyte free energy   =      -0.09662247 Ry
     correction to one-el term =    -180.69738810 Ry

     iteration # 48     ecut=    80.00 Ry     beta= 0.20
     Davidson diagonalization with overlap

---- Real-time Memory Report at c_bands before calling an iterative solver
          1124 MiB given to the printing process from OS
             0 MiB allocation reported by mallinfo(arena+hblkhd)
        463987 MiB available memory on the node where the printing process lives
------------------
     ethr =  4.46E-12,  avg # of iterations = 23.8

     negative rho (up, down):  6.267E-04 0.000E+00

     add environment contribution to local potential

     total cpu time spent up to now is     2731.4 secs

     total energy              =    -722.27437473 Ry
     estimated scf accuracy    <          3.3E-09 Ry

     total charge of GC-SCF    =       6.31459939 e
     the Fermi energy          =      -4.90403517 eV
                        (error :       0.00003517 eV)
     electrostatic embedding   =      -4.30097105 Ry
     cavitation energy         =       0.04794894 Ry
     electrolyte free energy   =      -0.09666605 Ry
     correction to one-el term =    -180.73209606 Ry

     iteration # 49     ecut=    80.00 Ry     beta= 0.20
     Davidson diagonalization with overlap

---- Real-time Memory Report at c_bands before calling an iterative solver
          1124 MiB given to the printing process from OS
             0 MiB allocation reported by mallinfo(arena+hblkhd)
        463997 MiB available memory on the node where the printing process lives
------------------
     ethr =  2.39E-12,  avg # of iterations = 16.1

     negative rho (up, down):  6.252E-04 0.000E+00

     add environment contribution to local potential

     total cpu time spent up to now is     2786.9 secs

     total energy              =    -722.27437350 Ry
     estimated scf accuracy    <          1.9E-09 Ry

     total charge of GC-SCF    =       6.31458597 e
     the Fermi energy          =      -4.90411697 eV
                        (error :       0.00011697 eV)
     electrostatic embedding   =      -4.30113025 Ry
     cavitation energy         =       0.04794894 Ry
     electrolyte free energy   =      -0.09667128 Ry
     correction to one-el term =    -180.73499030 Ry

     iteration # 50     ecut=    80.00 Ry     beta= 0.20
     Davidson diagonalization with overlap

---- Real-time Memory Report at c_bands before calling an iterative solver
          1124 MiB given to the printing process from OS
             0 MiB allocation reported by mallinfo(arena+hblkhd)
        463961 MiB available memory on the node where the printing process lives
------------------
     ethr =  1.35E-12,  avg # of iterations = 12.6

     negative rho (up, down):  6.198E-04 0.000E+00

     add environment contribution to local potential

     total cpu time spent up to now is     2836.3 secs

     total energy              =    -722.27437386 Ry
     estimated scf accuracy    <          1.5E-09 Ry

     total charge of GC-SCF    =       6.31433402 e
     the Fermi energy          =      -4.90410953 eV
                        (error :       0.00010953 eV)
     electrostatic embedding   =      -4.30110133 Ry
     cavitation energy         =       0.04794894 Ry
     electrolyte free energy   =      -0.09667077 Ry
     correction to one-el term =    -180.73422378 Ry

     iteration # 51     ecut=    80.00 Ry     beta= 0.20
     Davidson diagonalization with overlap

---- Real-time Memory Report at c_bands before calling an iterative solver
          1124 MiB given to the printing process from OS
             0 MiB allocation reported by mallinfo(arena+hblkhd)
        463977 MiB available memory on the node where the printing process lives
------------------
     ethr =  1.07E-12,  avg # of iterations = 12.2

     negative rho (up, down):  6.213E-04 0.000E+00

     add environment contribution to local potential

     total cpu time spent up to now is     2890.0 secs

     total energy              =    -722.27437801 Ry
     estimated scf accuracy    <          5.2E-10 Ry

     total charge of GC-SCF    =       6.31436953 e
     the Fermi energy          =      -4.90392323 eV
                        (error :       0.00007677 eV)
     electrostatic embedding   =      -4.30073416 Ry
     cavitation energy         =       0.04794894 Ry
     electrolyte free energy   =      -0.09666177 Ry
     correction to one-el term =    -180.72570728 Ry

     iteration # 52     ecut=    80.00 Ry     beta= 0.20
     Davidson diagonalization with overlap

---- Real-time Memory Report at c_bands before calling an iterative solver
          1124 MiB given to the printing process from OS
             0 MiB allocation reported by mallinfo(arena+hblkhd)
        463978 MiB available memory on the node where the printing process lives
------------------
     ethr =  3.78E-13,  avg # of iterations = 14.2

     negative rho (up, down):  6.257E-04 0.000E+00

     add environment contribution to local potential

     total cpu time spent up to now is     2944.7 secs

     total energy              =    -722.27437794 Ry
     estimated scf accuracy    <          4.1E-10 Ry

     total charge of GC-SCF    =       6.31458399 e
     the Fermi energy          =      -4.90392418 eV
                        (error :       0.00007582 eV)
     electrostatic embedding   =      -4.30077821 Ry
     cavitation energy         =       0.04794894 Ry
     electrolyte free energy   =      -0.09666294 Ry
     correction to one-el term =    -180.72636462 Ry

     iteration # 53     ecut=    80.00 Ry     beta= 0.20
     Davidson diagonalization with overlap

---- Real-time Memory Report at c_bands before calling an iterative solver
          1124 MiB given to the printing process from OS
             0 MiB allocation reported by mallinfo(arena+hblkhd)
        463944 MiB available memory on the node where the printing process lives
------------------
     ethr =  2.95E-13,  avg # of iterations = 24.1

     negative rho (up, down):  6.282E-04 0.000E+00

     add environment contribution to local potential

     total cpu time spent up to now is     3008.9 secs

     total energy              =    -722.27437620 Ry
     estimated scf accuracy    <          2.1E-10 Ry

     total charge of GC-SCF    =       6.31463664 e
     the Fermi energy          =      -4.90400122 eV
                        (error :       0.00000122 eV)
     electrostatic embedding   =      -4.30105269 Ry
     cavitation energy         =       0.04794894 Ry
     electrolyte free energy   =      -0.09667024 Ry
     correction to one-el term =    -180.73151775 Ry

     iteration # 54     ecut=    80.00 Ry     beta= 0.20
     Davidson diagonalization with overlap

---- Real-time Memory Report at c_bands before calling an iterative solver
          1124 MiB given to the printing process from OS
             0 MiB allocation reported by mallinfo(arena+hblkhd)
        463902 MiB available memory on the node where the printing process lives
------------------
     ethr =  1.53E-13,  avg # of iterations = 14.0

     negative rho (up, down):  6.295E-04 0.000E+00

     add environment contribution to local potential

     total cpu time spent up to now is     3062.7 secs

     total energy              =    -722.27437566 Ry
     estimated scf accuracy    <          1.4E-10 Ry

     total charge of GC-SCF    =       6.31469484 e
     the Fermi energy          =      -4.90402454 eV
                        (error :       0.00002454 eV)
     electrostatic embedding   =      -4.30112174 Ry
     cavitation energy         =       0.04794894 Ry
     electrolyte free energy   =      -0.09667204 Ry
     correction to one-el term =    -180.73288153 Ry

     iteration # 55     ecut=    80.00 Ry     beta= 0.20
     Davidson diagonalization with overlap

---- Real-time Memory Report at c_bands before calling an iterative solver
          1124 MiB given to the printing process from OS
             0 MiB allocation reported by mallinfo(arena+hblkhd)
        463909 MiB available memory on the node where the printing process lives
------------------
     ethr =  1.00E-13,  avg # of iterations = 12.9

     negative rho (up, down):  6.281E-04 0.000E+00

     add environment contribution to local potential

     total cpu time spent up to now is     3116.2 secs

     total energy              =    -722.27437486 Ry
     estimated scf accuracy    <          6.0E-11 Ry

     total charge of GC-SCF    =       6.31467665 e
     the Fermi energy          =      -4.90406049 eV
[...]
     atom   30 type  1   force =     0.00000004    0.00002299  -12.17735874
     atom   31 type  1   force =     0.00000000    0.00002615   12.17714668
     atom   32 type  1   force =    -0.00000958   -0.00000204    3.48374726
     atom   33 type  1   force =     0.00000003   -0.00001154    8.12683299
     atom   34 type  1   force =    -0.00000000    0.00001690    6.30661452
     atom   35 type  1   force =    -0.00000386    0.00000834   10.12427639
     atom   36 type  1   force =     0.00000005    0.00001590    0.98484717
     atom   37 type  1   force =     0.00002081    0.00000798   -0.98478360
     atom   38 type  1   force =     0.00000004   -0.00003642  -10.12437168
     atom   39 type  1   force =     0.00001288   -0.00000594   -6.30654991
     atom   40 type  1   force =    -0.00000885   -0.00001242   -8.12679426
     atom   41 type  1   force =     0.00000003   -0.00000439   -3.48352405
     atom   42 type  1   force =     0.00000242   -0.00002644  -12.17734656
     atom   43 type  1   force =    -0.00001225   -0.00001811   12.17714404
     atom   44 type  1   force =     0.00000003    0.00000617    3.48360323
     atom   45 type  1   force =     0.00001027    0.00000313    8.12682050
     atom   46 type  1   force =    -0.00001406   -0.00000243    6.30665296
     atom   47 type  1   force =     0.00000002   -0.00000595   10.12414257
     atom   48 type  1   force =    -0.00001631   -0.00000492    0.98482110
     The local contribution  to forces
     atom    1 type  1   force =     0.00000058   -0.00000224    0.99556525
     atom    2 type  1   force =    -0.00000640   -0.00004778   10.30838746
     atom    3 type  1   force =     0.00000196   -0.00000869    6.37954192
     atom    4 type  1   force =    -0.00000058   -0.00000284    8.26182535
     atom    5 type  1   force =     0.00001235    0.00000496    3.52447904
     atom    6 type  1   force =    -0.00000328   -0.00002730   12.13674844
     atom    7 type  1   force =     0.00000000   -0.00001328  -12.13650772
     atom    8 type  1   force =    -0.00000778    0.00000182   -3.52494035
     atom    9 type  1   force =     0.00000196    0.00000144   -8.26176532
     atom   10 type  1   force =     0.00000058    0.00000282   -6.37971593
     atom   11 type  1   force =    -0.00000261   -0.00001049  -10.30853701
     atom   12 type  1   force =     0.00000138    0.00000771   -0.99560116
     atom   13 type  1   force =     0.00002326   -0.00000801    0.99545882
     atom   14 type  1   force =     0.00000313    0.00004809   10.30852896
     atom   15 type  1   force =     0.00001704    0.00000692    6.37952886
     atom   16 type  1   force =    -0.00000760    0.00001337    8.26163780
     atom   17 type  1   force =     0.00000196   -0.00001442    3.52460325
     atom   18 type  1   force =     0.00000607    0.00003073   12.13676927
     atom   19 type  1   force =    -0.00001028    0.00001910  -12.13650937
     atom   20 type  1   force =     0.00000255    0.00000204   -3.52483257
     atom   21 type  1   force =     0.00001489   -0.00000363   -8.26175614
     atom   22 type  1   force =    -0.00001286    0.00000327   -6.37973083
     atom   23 type  1   force =     0.00000255    0.00001259  -10.30844432
     atom   24 type  1   force =    -0.00001302    0.00000543   -0.99558876
     atom   25 type  1   force =     0.00000254    0.00001728    0.99553831
     atom   26 type  1   force =     0.00001034   -0.00004661   10.30837846
     atom   27 type  1   force =     0.00000392   -0.00000180    6.37950517
     atom   28 type  1   force =     0.00000312   -0.00002162    8.26177214
     atom   29 type  1   force =    -0.00000842    0.00000496    3.52447421
     atom   30 type  1   force =     0.00000862   -0.00002430   12.13675411
     atom   31 type  1   force =     0.00000256   -0.00002709  -12.13651042
     atom   32 type  1   force =     0.00001171    0.00000182   -3.52494337
     atom   33 type  1   force =     0.00000334    0.00001300   -8.26177246
     atom   34 type  1   force =     0.00000254   -0.00001811   -6.37969183
     atom   35 type  1   force =     0.00000655   -0.00000991  -10.30853941
     atom   36 type  1   force =     0.00000392   -0.00001592   -0.99561499
     atom   37 type  1   force =    -0.00001876   -0.00000859    0.99545882
     atom   38 type  1   force =     0.00000277    0.00004255   10.30854178
     atom   39 type  1   force =    -0.00000978    0.00000634    6.37952825
     atom   40 type  1   force =     0.00001210    0.00001221    8.26163719
     atom   41 type  1   force =     0.00000335    0.00000466    3.52462677
     atom   42 type  1   force =     0.00000123    0.00002430   12.13676868
     atom   43 type  1   force =     0.00001481    0.00001852  -12.13650878
     atom   44 type  1   force =     0.00000335   -0.00000581   -3.52479493
     atom   45 type  1   force =    -0.00000763   -0.00000363   -8.26175614
     atom   46 type  1   force =     0.00001678    0.00000327   -6.37973022
     atom   47 type  1   force =     0.00000335    0.00000786  -10.30839666
     atom   48 type  1   force =     0.00001971    0.00000485   -0.99558876
     The core correction contribution to forces
     atom    1 type  1   force =     0.00000000    0.00000000    0.00000000
     atom    2 type  1   force =     0.00000000    0.00000000    0.00000000
     atom    3 type  1   force =     0.00000000    0.00000000    0.00000000
     atom    4 type  1   force =     0.00000000    0.00000000    0.00000000
     atom    5 type  1   force =     0.00000000    0.00000000    0.00000000
     atom    6 type  1   force =     0.00000000    0.00000000    0.00000000
     atom    7 type  1   force =     0.00000000    0.00000000    0.00000000
     atom    8 type  1   force =     0.00000000    0.00000000    0.00000000
     atom    9 type  1   force =     0.00000000    0.00000000    0.00000000
     atom   10 type  1   force =     0.00000000    0.00000000    0.00000000
     atom   11 type  1   force =     0.00000000    0.00000000    0.00000000
     atom   12 type  1   force =     0.00000000    0.00000000    0.00000000
     atom   13 type  1   force =     0.00000000    0.00000000    0.00000000
     atom   14 type  1   force =     0.00000000    0.00000000    0.00000000
     atom   15 type  1   force =     0.00000000    0.00000000    0.00000000
     atom   16 type  1   force =     0.00000000    0.00000000    0.00000000
     atom   17 type  1   force =     0.00000000    0.00000000    0.00000000
     atom   18 type  1   force =     0.00000000    0.00000000    0.00000000
     atom   19 type  1   force =     0.00000000    0.00000000    0.00000000
     atom   20 type  1   force =     0.00000000    0.00000000    0.00000000
     atom   21 type  1   force =     0.00000000    0.00000000    0.00000000
     atom   22 type  1   force =     0.00000000    0.00000000    0.00000000
     atom   23 type  1   force =     0.00000000    0.00000000    0.00000000
     atom   24 type  1   force =     0.00000000    0.00000000    0.00000000
     atom   25 type  1   force =     0.00000000    0.00000000    0.00000000
     atom   26 type  1   force =     0.00000000    0.00000000    0.00000000
     atom   27 type  1   force =     0.00000000    0.00000000    0.00000000
     atom   28 type  1   force =     0.00000000    0.00000000    0.00000000
     atom   29 type  1   force =     0.00000000    0.00000000    0.00000000
     atom   30 type  1   force =     0.00000000    0.00000000    0.00000000
     atom   31 type  1   force =     0.00000000    0.00000000    0.00000000
     atom   32 type  1   force =     0.00000000    0.00000000    0.00000000
     atom   33 type  1   force =     0.00000000    0.00000000    0.00000000
     atom   34 type  1   force =     0.00000000    0.00000000    0.00000000
     atom   35 type  1   force =     0.00000000    0.00000000    0.00000000
     atom   36 type  1   force =     0.00000000    0.00000000    0.00000000
     atom   37 type  1   force =     0.00000000    0.00000000    0.00000000
     atom   38 type  1   force =     0.00000000    0.00000000    0.00000000
     atom   39 type  1   force =     0.00000000    0.00000000    0.00000000
     atom   40 type  1   force =     0.00000000    0.00000000    0.00000000
     atom   41 type  1   force =     0.00000000    0.00000000    0.00000000
     atom   42 type  1   force =     0.00000000    0.00000000    0.00000000
     atom   43 type  1   force =     0.00000000    0.00000000    0.00000000
     atom   44 type  1   force =     0.00000000    0.00000000    0.00000000
     atom   45 type  1   force =     0.00000000    0.00000000    0.00000000
     atom   46 type  1   force =     0.00000000    0.00000000    0.00000000
     atom   47 type  1   force =     0.00000000    0.00000000    0.00000000
     atom   48 type  1   force =     0.00000000    0.00000000    0.00000000
     The Hubbard contrib.    to forces
     atom    1 type  1   force =     0.00000000    0.00000000    0.00000000
     atom    2 type  1   force =     0.00000000    0.00000000    0.00000000
     atom    3 type  1   force =     0.00000000    0.00000000    0.00000000
     atom    4 type  1   force =     0.00000000    0.00000000    0.00000000
     atom    5 type  1   force =     0.00000000    0.00000000    0.00000000
     atom    6 type  1   force =     0.00000000    0.00000000    0.00000000
     atom    7 type  1   force =     0.00000000    0.00000000    0.00000000
     atom    8 type  1   force =     0.00000000    0.00000000    0.00000000
     atom    9 type  1   force =     0.00000000    0.00000000    0.00000000
     atom   10 type  1   force =     0.00000000    0.00000000    0.00000000
     atom   11 type  1   force =     0.00000000    0.00000000    0.00000000
     atom   12 type  1   force =     0.00000000    0.00000000    0.00000000
     atom   13 type  1   force =     0.00000000    0.00000000    0.00000000
     atom   14 type  1   force =     0.00000000    0.00000000    0.00000000
     atom   15 type  1   force =     0.00000000    0.00000000    0.00000000
     atom   16 type  1   force =     0.00000000    0.00000000    0.00000000
     atom   17 type  1   force =     0.00000000    0.00000000    0.00000000
     atom   18 type  1   force =     0.00000000    0.00000000    0.00000000
     atom   19 type  1   force =     0.00000000    0.00000000    0.00000000
     atom   20 type  1   force =     0.00000000    0.00000000    0.00000000
     atom   21 type  1   force =     0.00000000    0.00000000    0.00000000
     atom   22 type  1   force =     0.00000000    0.00000000    0.00000000
     atom   23 type  1   force =     0.00000000    0.00000000    0.00000000
     atom   24 type  1   force =     0.00000000    0.00000000    0.00000000
     atom   25 type  1   force =     0.00000000    0.00000000    0.00000000
     atom   26 type  1   force =     0.00000000    0.00000000    0.00000000
     atom   27 type  1   force =     0.00000000    0.00000000    0.00000000
     atom   28 type  1   force =     0.00000000    0.00000000    0.00000000
     atom   29 type  1   force =     0.00000000    0.00000000    0.00000000
     atom   30 type  1   force =     0.00000000    0.00000000    0.00000000
     atom   31 type  1   force =     0.00000000    0.00000000    0.00000000
     atom   32 type  1   force =     0.00000000    0.00000000    0.00000000
     atom   33 type  1   force =     0.00000000    0.00000000    0.00000000
     atom   34 type  1   force =     0.00000000    0.00000000    0.00000000
     atom   35 type  1   force =     0.00000000    0.00000000    0.00000000
     atom   36 type  1   force =     0.00000000    0.00000000    0.00000000
     atom   37 type  1   force =     0.00000000    0.00000000    0.00000000
     atom   38 type  1   force =     0.00000000    0.00000000    0.00000000
     atom   39 type  1   force =     0.00000000    0.00000000    0.00000000
     atom   40 type  1   force =     0.00000000    0.00000000    0.00000000
     atom   41 type  1   force =     0.00000000    0.00000000    0.00000000
     atom   42 type  1   force =     0.00000000    0.00000000    0.00000000
     atom   43 type  1   force =     0.00000000    0.00000000    0.00000000
     atom   44 type  1   force =     0.00000000    0.00000000    0.00000000
     atom   45 type  1   force =     0.00000000    0.00000000    0.00000000
     atom   46 type  1   force =     0.00000000    0.00000000    0.00000000
     atom   47 type  1   force =     0.00000000    0.00000000    0.00000000
     atom   48 type  1   force =     0.00000000    0.00000000    0.00000000
     The SCF correction term to forces
     atom    1 type  1   force =     0.00000000    0.00000000    0.00000000
     atom    2 type  1   force =    -0.00000000    0.00000000    0.00000000
     atom    3 type  1   force =     0.00000000   -0.00000000    0.00000000
     atom    4 type  1   force =     0.00000000    0.00000000    0.00000000
     atom    5 type  1   force =    -0.00000000    0.00000000    0.00000000
     atom    6 type  1   force =     0.00000000   -0.00000000   -0.00000000
     atom    7 type  1   force =    -0.00000000    0.00000000    0.00000000
     atom    8 type  1   force =    -0.00000000    0.00000000   -0.00000000
     atom    9 type  1   force =     0.00000000   -0.00000000    0.00000000
     atom   10 type  1   force =    -0.00000000    0.00000000   -0.00000000
     atom   11 type  1   force =    -0.00000000    0.00000000   -0.00000000
     atom   12 type  1   force =    -0.00000000   -0.00000000    0.00000000
     atom   13 type  1   force =    -0.00000000   -0.00000000    0.00000000
     atom   14 type  1   force =    -0.00000000    0.00000000   -0.00000000
     atom   15 type  1   force =    -0.00000000    0.00000000    0.00000000
     atom   16 type  1   force =    -0.00000000   -0.00000000    0.00000000
     atom   17 type  1   force =    -0.00000000    0.00000000    0.00000000
     atom   18 type  1   force =    -0.00000000    0.00000000   -0.00000000
     atom   19 type  1   force =    -0.00000000   -0.00000000    0.00000000
     atom   20 type  1   force =     0.00000000    0.00000000   -0.00000000
     atom   21 type  1   force =    -0.00000000    0.00000000    0.00000000
     atom   22 type  1   force =    -0.00000000   -0.00000000    0.00000000
     atom   23 type  1   force =     0.00000000    0.00000000    0.00000000
     atom   24 type  1   force =    -0.00000000    0.00000000    0.00000000
     atom   25 type  1   force =    -0.00000000    0.00000000    0.00000000
     atom   26 type  1   force =     0.00000000    0.00000000    0.00000000
     atom   27 type  1   force =     0.00000000   -0.00000000    0.00000000
     atom   28 type  1   force =    -0.00000000    0.00000000    0.00000000
     atom   29 type  1   force =     0.00000000    0.00000000    0.00000000
     atom   30 type  1   force =     0.00000000   -0.00000000   -0.00000000
     atom   31 type  1   force =     0.00000000    0.00000000    0.00000000
     atom   32 type  1   force =     0.00000000    0.00000000   -0.00000000
     atom   33 type  1   force =     0.00000000   -0.00000000   -0.00000000
     atom   34 type  1   force =     0.00000000    0.00000000    0.00000000
     atom   35 type  1   force =     0.00000000    0.00000000   -0.00000000
     atom   36 type  1   force =    -0.00000000   -0.00000000   -0.00000000
     atom   37 type  1   force =     0.00000000   -0.00000000    0.00000000
     atom   38 type  1   force =    -0.00000000   -0.00000000    0.00000000
     atom   39 type  1   force =     0.00000000    0.00000000    0.00000000
     atom   40 type  1   force =     0.00000000   -0.00000000    0.00000000
     atom   41 type  1   force =     0.00000000   -0.00000000    0.00000000
     atom   42 type  1   force =     0.00000000    0.00000000   -0.00000000
     atom   43 type  1   force =     0.00000000   -0.00000000    0.00000000
     atom   44 type  1   force =    -0.00000000   -0.00000000   -0.00000000
     atom   45 type  1   force =     0.00000000    0.00000000    0.00000000
     atom   46 type  1   force =     0.00000000   -0.00000000    0.00000000
     atom   47 type  1   force =    -0.00000000   -0.00000000    0.00000000
     atom   48 type  1   force =     0.00000000    0.00000000    0.00000000

     Total force =     0.001963     Total SCF correction =     0.000000

     Writing all to output data dir ./Li/Lithium.save/ :
     XML data file
     init_run     :     27.68s CPU     35.43s WALL (       1 calls)
     electrons    :   3620.43s CPU   4218.80s WALL (       1 calls)
     forces       :     84.00s CPU     89.55s WALL (       1 calls)

     Called by init_run:
     wfcinit      :      2.72s CPU      3.24s WALL (       1 calls)
     wfcinit:wfcr :      2.46s CPU      2.96s WALL (       8 calls)
     potinit      :      1.05s CPU      1.12s WALL (       1 calls)
     hinit0       :      7.77s CPU      8.74s WALL (       1 calls)

     Called by electrons:
     c_bands      :   1616.60s CPU   1922.25s WALL (      84 calls)
     sum_band     :    116.14s CPU    143.38s WALL (      84 calls)
     v_of_rho     :     14.47s CPU     17.08s WALL (      85 calls)
     v_h          :      1.05s CPU      1.36s WALL (      85 calls)
     v_xc         :     13.41s CPU     15.72s WALL (      85 calls)
     newd         :      6.40s CPU      8.29s WALL (      85 calls)
     PAW_pot      :      0.91s CPU      1.18s WALL (      85 calls)
     mix_rho      :     35.69s CPU     43.72s WALL (      84 calls)

     Called by c_bands:
     init_us_2    :     24.43s CPU     24.71s WALL (    1360 calls)
     cegterg      :   1522.98s CPU   1707.76s WALL (     830 calls)

     Called by sum_band:
     sum_band:wei :      0.14s CPU      0.16s WALL (      84 calls)
     sum_band:loo :    103.75s CPU    122.42s WALL (      84 calls)
     sum_band:buf :      2.53s CPU      2.55s WALL (     672 calls)
     sum_band:ini :     12.17s CPU     12.24s WALL (     672 calls)
     sum_band:cal :     20.16s CPU     21.36s WALL (     672 calls)
     sum_band:bec :      0.18s CPU      0.19s WALL (     672 calls)
     addusdens    :      5.72s CPU      5.85s WALL (      84 calls)
                                        0.00s GPU  (      84 calls)
     addusd:skk   :      1.18s CPU      1.18s WALL (      84 calls)
                                        0.00s GPU  (      84 calls)

     Called by *egterg:
     cdiaghg      :    395.69s CPU    410.22s WALL (    9843 calls)
     cegterg:over :    104.93s CPU    112.89s WALL (    9060 calls)
     cegterg:upda :     87.15s CPU     87.94s WALL (    9060 calls)
     cegterg:last :     37.39s CPU     37.48s WALL (    1071 calls)
     h_psi        :    766.77s CPU    924.39s WALL (    9898 calls)
     s_psi        :     97.35s CPU     97.70s WALL (    9898 calls)
     g_psi        :      1.24s CPU      1.31s WALL (    9060 calls)

     Called by h_psi:
     h_psi:calbec :    119.29s CPU    127.97s WALL (    9898 calls)
     vloc_psi     :    545.02s CPU    693.05s WALL (    9898 calls)
                                        0.00s GPU  (    9898 calls)
     add_vuspsi   :     96.35s CPU     96.95s WALL (    9898 calls)

     General routines
     calbec       :    140.25s CPU    150.18s WALL (   10602 calls)
     fft          :     10.33s CPU     13.84s WALL (    1105 calls)
     ffts         :     18.13s CPU     23.44s WALL (   10378 calls)
     fftw         :    570.00s CPU    725.10s WALL (  666952 calls)
     interpolate  :      1.84s CPU      2.06s WALL (      85 calls)

     Parallel routines

     PAW routines
     PAW_pot      :      0.91s CPU      1.18s WALL (      85 calls)
     PAW_symme    :      0.03s CPU      0.04s WALL (     169 calls)

     Environ routines

     PWSCF        :      1h 2m CPU      1h12m WALL


   This run was terminated on:   5:36: 8  20Jan2025            

=------------------------------------------------------------------------------=
   JOB DONE.
=------------------------------------------------------------------------------=
