
     Program PWSCF v.7.4 starts on 23Jan2025 at  0:35:55 

     This program is part of the open-source Quantum ESPRESSO suite
     for quantum simulation of materials; please cite
         "P. Giannozzi et al., J. Phys.:Condens. Matter 21 395502 (2009);
         "P. Giannozzi et al., J. Phys.:Condens. Matter 29 465901 (2017);
         "P. Giannozzi et al., J. Chem. Phys. 152 154105 (2020);
          URL http://www.quantum-espresso.org", 
     in publications or presentations arising from this work. More details at
     http://www.quantum-espresso.org/quote

     Parallel version (MPI & OpenMP), running on     384 processor cores
     Number of MPI processes:               384
     Threads/MPI process:                     1

     MPI processes distributed on     2 nodes
     664412 MiB available memory on the printing compute node when the environment starts
 
     Reading input from espresso.pwi
Warning: card &CELL ignored
Warning: card    PRESS_CONV_THR   = 0.1 ignored
Warning: card    CELL_DOFREE      = 'ALL' ignored
Warning: card / ignored
Warning: card &FCP ignored
Warning: card / ignored
Warning: card &RISM ignored
Warning: card / ignored

     Current dimensions of program PWSCF are:
     Max number of different atomic species (ntypx) = 10
     Max number of k-points (npk) =  40000
     Max angular momentum in pseudopotentials (lmaxx) =  4

     IMPORTANT: XC functional enforced from input :
     Exchange-correlation= PBE
                           (   1   4   3   4   0   0   0)
     Any further DFT definition will be discarded
     Please, verify this is what you really want

 
     K-points division:     npool     =       3
     R & G space division:  proc/nbgrp/npool/nimage =     128
     Subspace diagonalization in iterative solution of the eigenvalue problem:
     one sub-group per band group will be used
     ELPA distributed-memory algorithm (size of sub-group:  2*  2 procs)

 
     Parallelization info
     --------------------
     sticks:   dense  smooth     PW     G-vecs:    dense   smooth      PW
     Min         172      69     18                55510    14045    1888
     Max         173      70     19                55535    14056    1899
     Sum       22119    8865   2329              7107383  1798517  242621
 
     Using Slab Decomposition
 


     bravais-lattice index     =            0
     lattice parameter (alat)  =      18.3607  a.u.
     unit-cell volume          =   18601.3644 (a.u.)^3
     number of atoms/cell      =           68
     number of atomic types    =            1
     number of electrons       =       204.00
     number of Kohn-Sham states=          153
     kinetic-energy cutoff     =      80.0000  Ry
     charge density cutoff     =     800.0000  Ry
     scf convergence threshold =      1.0E-06
     mixing beta               =       0.2000
     number of iterations used =            8  local-TF  mixing
     energy convergence thresh.=      1.0E-05
     force convergence thresh. =      3.9E-04
     Exchange-correlation= PBE
                           (   1   4   3   4   0   0   0)
     nstep                     =           50


     celldm(1)=  18.360747  celldm(2)=   0.000000  celldm(3)=   0.000000
     celldm(4)=   0.000000  celldm(5)=   0.000000  celldm(6)=   0.000000

     crystal axes: (cart. coord. in units of alat)
               a(1) = (   1.000000   0.000000   0.000000 )  
               a(2) = (  -0.250000   1.030776   0.000000 )  
               a(3) = (   0.000000   0.000000   2.915476 )  

     reciprocal axes: (cart. coord. in units 2 pi/alat)
               b(1) = (  1.000000  0.242536  0.000000 )  
               b(2) = (  0.000000  0.970143  0.000000 )  
               b(3) = (  0.000000  0.000000  0.342997 )  


     PseudoPot. # 1 for Li read from file:
     /iridisfs/home/ba3g18/Repos/Pseudopotentials/pslibrary.1.0.0/pbe/PSEUDOPOTENTIALS/Li.pbe-sl-kjpaw_psl.1.0.0.UPF
     MD5 check sum: 3f4d2cafebb47c6c3aa8ed472e6f074d
     Pseudo is Projector augmented-wave, Zval =  3.0
     Generated using 'atomic' code by A. Dal Corso  v.7.4
     Shape of augmentation charge: PSQ
     Using radial grid of 1017 points,  4 beta functions with: 
                l(1) =   0
                l(2) =   0
                l(3) =   1
                l(4) =   1
     Q(r) pseudized with 0 coefficients 


     atomic species   valence    mass     pseudopotential
     Li                3.00     6.94000     Li( 1.00)

     No symmetry found



   Cartesian axes

     site n.     atom                  positions (alat units)
         1        Li     tau(   1) = (   0.0006166   0.0241195   0.7619521  )
         2        Li     tau(   2) = (  -0.0004626   0.6136174   2.1194366  )
         3        Li     tau(   3) = (   0.2493266   0.7948953   1.9634307  )
         4        Li     tau(   4) = (   0.2494009   0.2005357   1.9947651  )
         5        Li     tau(   5) = (  -0.0004227   0.3729885   1.8657399  )
         6        Li     tau(   6) = (   0.2495315   0.5543551   1.6964907  )
         7        Li     tau(   7) = (   0.2503128   0.9052246   1.3514026  )
         8        Li     tau(   8) = (  -0.0004641   0.9767100   1.7896951  )
         9        Li     tau(   9) = (  -0.0000337   0.1248663   1.6081427  )
        10        Li     tau(  10) = (   0.2498495   0.3050762   1.4232923  )
        11        Li     tau(  11) = (   0.0002790   0.4798240   1.2599588  )
        12        Li     tau(  12) = (   0.2505934   0.6545390   1.0845517  )
        13        Li     tau(  13) = (  -0.0001064   0.7290703   1.5253703  )
        14        Li     tau(  14) = (   0.2502007   0.0494896   1.2005414  )
        15        Li     tau(  15) = (   0.0005691   0.2377991   1.0067662  )
        16        Li     tau(  16) = (   0.2507667   0.3880086   0.8238510  )
        17        Li     tau(  17) = (   0.0004528   0.8452042   0.9206525  )
        18        Li     tau(  18) = (  -0.0005712   0.0653705   1.9087097  )
        19        Li     tau(  19) = (  -0.0005933   0.6794067   1.8309247  )
        20        Li     tau(  20) = (   0.2497212   0.8541218   1.6555173  )
        21        Li     tau(  21) = (   0.2497992   0.2536793   1.7149371  )
        22        Li     tau(  22) = (  -0.0003133   0.4287217   1.5640735  )
        23        Li     tau(  23) = (   0.2501066   0.6048760   1.3901059  )
        24        Li     tau(  24) = (   0.2504229   0.9609569   1.0497362  )
        25        Li     tau(  25) = (   0.0001502   1.0288698   1.4921853  )
        26        Li     tau(  26) = (   0.0000327   0.1783037   1.3073332  )
        27        Li     tau(  27) = (   0.2504645   0.3572353   1.1257816  )
        28        Li     tau(  28) = (   0.0006737   0.5390503   0.9520455  )
        29        Li     tau(  29) = (   0.2504615   0.7203273   0.7960396  )
        30        Li     tau(  30) = (   0.0004682   0.7795903   1.2189855  )
        31        Li     tau(  31) = (   0.2505994   0.1026344   0.9207154  )
        32        Li     tau(  32) = (  -0.0006049   0.2790507   2.1535239  )
        33        Li     tau(  33) = (   0.2495472   0.4887417   1.9948241  )
        34        Li     tau(  34) = (  -0.0007666   0.9459353   2.0916249  )
        35        Li     tau(  35) = (   0.5005996   0.0241179   0.7619521  )
        36        Li     tau(  36) = (   0.4995383   0.6136161   2.1194375  )
        37        Li     tau(  37) = (   0.7493285   0.7948957   1.9634309  )
        38        Li     tau(  38) = (   0.7494011   0.2005362   1.9947693  )
        39        Li     tau(  39) = (   0.4995769   0.3729889   1.8657397  )
        40        Li     tau(  40) = (   0.7495306   0.5543554   1.6964894  )
        41        Li     tau(  41) = (   0.7503138   0.9052249   1.3514031  )
        42        Li     tau(  42) = (   0.4995359   0.9767112   1.7896923  )
        43        Li     tau(  43) = (   0.4999674   0.1248664   1.6081427  )
        44        Li     tau(  44) = (   0.7498500   0.3050765   1.4232932  )
        45        Li     tau(  45) = (   0.5002787   0.4798245   1.2599585  )
        46        Li     tau(  46) = (   0.7505925   0.6545378   1.0845496  )
        47        Li     tau(  47) = (   0.4998939   0.7290705   1.5253715  )
        48        Li     tau(  48) = (   0.7502004   0.0494918   1.2005338  )
        49        Li     tau(  49) = (   0.5005728   0.2377988   1.0067660  )
        50        Li     tau(  50) = (   0.7507671   0.3880150   0.8238536  )
        51        Li     tau(  51) = (   0.5004524   0.8452030   0.9206529  )
        52        Li     tau(  52) = (   0.4994301   0.0653705   1.9087095  )
        53        Li     tau(  53) = (   0.4994071   0.6794082   1.8309265  )
        54        Li     tau(  54) = (   0.7497217   0.8541221   1.6555174  )
        55        Li     tau(  55) = (   0.7497992   0.2536797   1.7149392  )
        56        Li     tau(  56) = (   0.4996863   0.4287215   1.5640729  )
        57        Li     tau(  57) = (   0.7501063   0.6048760   1.3901046  )
        58        Li     tau(  58) = (   0.7504227   0.9609569   1.0497362  )
        59        Li     tau(  59) = (   0.5001498   1.0288704   1.4921807  )
        60        Li     tau(  60) = (   0.5000331   0.1783042   1.3073332  )
        61        Li     tau(  61) = (   0.7504644   0.3572354   1.1257822  )
        62        Li     tau(  62) = (   0.5006709   0.5390497   0.9520451  )
        63        Li     tau(  63) = (   0.7504623   0.7203298   0.7960388  )
        64        Li     tau(  64) = (   0.5004692   0.7795916   1.2189868  )
        65        Li     tau(  65) = (   0.7505994   0.1026326   0.9207014  )
        66        Li     tau(  66) = (   0.4993897   0.2790495   2.1535237  )
        67        Li     tau(  67) = (   0.7495473   0.4887419   1.9948227  )
        68        Li     tau(  68) = (   0.4992327   0.9459322   2.0916219  )

     number of k points=    25  Marzari-Vanderbilt smearing, width (Ry)=  0.0100
                       cart. coord. in units 2pi/alat
        k(    1) = (   0.0000000   0.0000000   0.0000000), wk =   0.0408163
        k(    2) = (   0.0000000   0.1385918   0.0000000), wk =   0.0816327
        k(    3) = (   0.0000000   0.2771837   0.0000000), wk =   0.0816327
        k(    4) = (   0.0000000   0.4157755   0.0000000), wk =   0.0816327
        k(    5) = (   0.1428571   0.0346480   0.0000000), wk =   0.0816327
        k(    6) = (   0.1428571   0.1732398   0.0000000), wk =   0.0816327
        k(    7) = (   0.1428571   0.3118316   0.0000000), wk =   0.0816327
        k(    8) = (   0.1428571   0.4504235   0.0000000), wk =   0.0816327
        k(    9) = (   0.1428571  -0.3811276   0.0000000), wk =   0.0816327
        k(   10) = (   0.1428571  -0.2425357   0.0000000), wk =   0.0816327
        k(   11) = (   0.1428571  -0.1039439   0.0000000), wk =   0.0816327
        k(   12) = (   0.2857143   0.0692959   0.0000000), wk =   0.0816327
        k(   13) = (   0.2857143   0.2078878   0.0000000), wk =   0.0816327
        k(   14) = (   0.2857143   0.3464796   0.0000000), wk =   0.0816327
        k(   15) = (   0.2857143   0.4850714   0.0000000), wk =   0.0816327
        k(   16) = (   0.2857143  -0.3464796   0.0000000), wk =   0.0816327
        k(   17) = (   0.2857143  -0.2078878   0.0000000), wk =   0.0816327
        k(   18) = (   0.2857143  -0.0692959   0.0000000), wk =   0.0816327
        k(   19) = (   0.4285714   0.1039439   0.0000000), wk =   0.0816327
        k(   20) = (   0.4285714   0.2425357   0.0000000), wk =   0.0816327
        k(   21) = (   0.4285714   0.3811276   0.0000000), wk =   0.0816327
        k(   22) = (   0.4285714   0.5197194   0.0000000), wk =   0.0816327
        k(   23) = (   0.4285714  -0.3118316   0.0000000), wk =   0.0816327
        k(   24) = (   0.4285714  -0.1732398   0.0000000), wk =   0.0816327
        k(   25) = (   0.4285714  -0.0346480   0.0000000), wk =   0.0816327

     Dense  grid:  7107383 G-vectors     FFT dimensions: ( 180, 180, 486)

     Smooth grid:  1798517 G-vectors     FFT dimensions: ( 108, 120, 320)

     Estimated max dynamical RAM per process >     157.54 MB

     Estimated total dynamical RAM >      55.69 GB

     Initial potential from superposition of free atoms

     starting charge     203.6866, renormalised to     204.0000

     negative rho (up, down):  1.997E-03 0.000E+00
     Starting wfcs are  340 randomized atomic wfcs
     Checking if some PAW data can be deallocated... 

     total cpu time spent up to now is       15.8 secs

     Self-consistent Calculation

     iteration #  1     ecut=    80.00 Ry     beta= 0.20
     Davidson diagonalization with overlap
     ethr =  1.00E-02,  avg # of iterations =  4.0

     negative rho (up, down):  5.070E-05 0.000E+00

     total cpu time spent up to now is       36.3 secs

     total energy              =   -1022.91296207 Ry
     estimated scf accuracy    <       8.22422475 Ry

     iteration #  2     ecut=    80.00 Ry     beta= 0.20
     Davidson diagonalization with overlap
     ethr =  4.03E-03,  avg # of iterations =  1.5

     total cpu time spent up to now is       49.9 secs

     total energy              =   -1022.11485173 Ry
     estimated scf accuracy    <       6.29478679 Ry

     iteration #  3     ecut=    80.00 Ry     beta= 0.20
     Davidson diagonalization with overlap
     ethr =  3.09E-03,  avg # of iterations =  1.0

     total cpu time spent up to now is       61.0 secs

     total energy              =   -1022.50575815 Ry
     estimated scf accuracy    <       0.58317190 Ry

     iteration #  4     ecut=    80.00 Ry     beta= 0.20
     Davidson diagonalization with overlap
     ethr =  2.86E-04,  avg # of iterations =  4.0

     total cpu time spent up to now is       76.8 secs

     total energy              =   -1022.55205536 Ry
     estimated scf accuracy    <       1.18818031 Ry

     iteration #  5     ecut=    80.00 Ry     beta= 0.20
     Davidson diagonalization with overlap
     ethr =  2.86E-04,  avg # of iterations =  2.0

     total cpu time spent up to now is       89.2 secs

     total energy              =   -1022.55291142 Ry
     estimated scf accuracy    <       0.36400178 Ry

     iteration #  6     ecut=    80.00 Ry     beta= 0.20
     Davidson diagonalization with overlap
     ethr =  1.78E-04,  avg # of iterations =  3.4

     total cpu time spent up to now is      101.6 secs

     total energy              =   -1022.52374906 Ry
     estimated scf accuracy    <       0.21906114 Ry

     iteration #  7     ecut=    80.00 Ry     beta= 0.20
     Davidson diagonalization with overlap
     c_bands:  1 eigenvalues not converged
     ethr =  1.07E-04,  avg # of iterations = 11.5

     total cpu time spent up to now is      120.0 secs

     total energy              =   -1022.51965846 Ry
     estimated scf accuracy    <       0.11330932 Ry

     iteration #  8     ecut=    80.00 Ry     beta= 0.20
     Davidson diagonalization with overlap
     ethr =  5.55E-05,  avg # of iterations =  9.6

     negative rho (up, down):  8.386E-02 0.000E+00

     total cpu time spent up to now is      138.4 secs

     total energy              =   -1022.52106775 Ry
     estimated scf accuracy    <       0.03689950 Ry

     iteration #  9     ecut=    80.00 Ry     beta= 0.20
     Davidson diagonalization with overlap
     c_bands:  3 eigenvalues not converged
     ethr =  1.81E-05,  avg # of iterations = 14.0

     negative rho (up, down):  8.023E-02 0.000E+00

     total cpu time spent up to now is      162.1 secs

     total energy              =   -1022.52027103 Ry
     estimated scf accuracy    <       0.05019190 Ry

     iteration # 10     ecut=    80.00 Ry     beta= 0.20
     Davidson diagonalization with overlap
     ethr =  1.81E-05,  avg # of iterations =  7.4

     negative rho (up, down):  4.556E-02 0.000E+00

     total cpu time spent up to now is      177.4 secs

     total energy              =   -1022.52089709 Ry
     estimated scf accuracy    <       0.01527247 Ry

     iteration # 11     ecut=    80.00 Ry     beta= 0.20
     Davidson diagonalization with overlap
     c_bands:  1 eigenvalues not converged
     c_bands:  1 eigenvalues not converged
     ethr =  7.49E-06,  avg # of iterations = 11.0

     negative rho (up, down):  6.770E-02 0.000E+00

     total cpu time spent up to now is      197.9 secs

     total energy              =   -1022.52222685 Ry
     estimated scf accuracy    <       0.08037307 Ry

     iteration # 12     ecut=    80.00 Ry     beta= 0.20
     Davidson diagonalization with overlap
     ethr =  7.49E-06,  avg # of iterations = 13.2

     negative rho (up, down):  6.110E-03 0.000E+00

     total cpu time spent up to now is      216.5 secs

     total energy              =   -1022.51940828 Ry
     estimated scf accuracy    <       0.02834221 Ry

     iteration # 13     ecut=    80.00 Ry     beta= 0.20
     Davidson diagonalization with overlap
     ethr =  7.49E-06,  avg # of iterations =  7.5

     negative rho (up, down):  1.967E-03 0.000E+00

     total cpu time spent up to now is      232.6 secs

     total energy              =   -1022.52199217 Ry
     estimated scf accuracy    <       0.00101507 Ry

     iteration # 14     ecut=    80.00 Ry     beta= 0.20
     Davidson diagonalization with overlap
     c_bands:  1 eigenvalues not converged
     c_bands:  2 eigenvalues not converged
     ethr =  4.98E-07,  avg # of iterations = 15.2

     negative rho (up, down):  2.139E-03 0.000E+00

     total cpu time spent up to now is      256.6 secs

     total energy              =   -1022.52225692 Ry
     estimated scf accuracy    <       0.00015043 Ry

     iteration # 15     ecut=    80.00 Ry     beta= 0.20
     Davidson diagonalization with overlap
     c_bands:  1 eigenvalues not converged
     c_bands:  1 eigenvalues not converged
     c_bands:  1 eigenvalues not converged
     c_bands:  1 eigenvalues not converged
     ethr =  7.37E-08,  avg # of iterations = 13.2

     negative rho (up, down):  8.006E-04 0.000E+00

     total cpu time spent up to now is      276.1 secs

     total energy              =   -1022.52229586 Ry
     estimated scf accuracy    <       0.00019067 Ry

     iteration # 16     ecut=    80.00 Ry     beta= 0.20
     Davidson diagonalization with overlap
     c_bands:  1 eigenvalues not converged
     c_bands:  1 eigenvalues not converged
     ethr =  7.37E-08,  avg # of iterations = 11.0

     negative rho (up, down):  5.793E-04 0.000E+00

     total cpu time spent up to now is      294.0 secs

     total energy              =   -1022.52230442 Ry
     estimated scf accuracy    <       0.00000780 Ry

     iteration # 17     ecut=    80.00 Ry     beta= 0.20
     Davidson diagonalization with overlap
     ethr =  3.82E-09,  avg # of iterations =  5.0

     negative rho (up, down):  8.631E-05 0.000E+00

     total cpu time spent up to now is      314.6 secs

     total energy              =   -1022.52230715 Ry
     estimated scf accuracy    <       0.00000288 Ry

     iteration # 18     ecut=    80.00 Ry     beta= 0.20
     Davidson diagonalization with overlap
     ethr =  1.41E-09,  avg # of iterations =  4.0

     negative rho (up, down):  9.301E-05 0.000E+00

     total cpu time spent up to now is      328.8 secs

     End of self-consistent calculation

          k = 0.0000 0.0000 0.0000 (224845 PWs)   bands (ev):

   -48.4494 -48.4493 -48.4493 -48.4493 -48.2793 -48.2793 -48.2793 -48.2793
   -48.2695 -48.2694 -48.2694 -48.2694 -47.5985 -47.5985 -47.5984 -47.5984
   -47.5561 -47.5560 -47.5560 -47.5560 -47.5064 -47.5064 -47.5061 -47.5061
   -47.4135 -47.4112 -47.4085 -47.4069 -47.4069 -47.4048 -47.4035 -47.4035
   -47.3971 -47.3958 -47.3957 -47.3955 -47.3931 -47.3928 -47.3925 -47.3924
   -47.3911 -47.3910 -47.3909 -47.3900 -47.3890 -47.3889 -47.3886 -47.3871
   -47.3869 -47.3869 -47.3869 -47.3852 -47.3821 -47.3808 -47.3805 -47.3801
   -47.3732 -47.3729 -47.3716 -47.3703 -47.3386 -47.3386 -47.3379 -47.3379
   -47.2764 -47.2764 -47.2762 -47.2762  -4.3510  -4.0397  -3.4953  -3.2347
    -3.2330  -3.1005  -3.0912  -2.9194  -2.9146  -2.7893  -2.7855  -2.7575
    -2.5307  -2.5281  -2.3596  -2.3530  -2.3037  -2.2334  -2.2169  -2.1403
    -1.9438  -1.7047  -1.6684  -1.6042  -1.5897  -1.4958  -1.4947  -1.4573
    -1.4104  -1.1561  -1.1337  -1.0366  -0.9563  -0.9342  -0.7936  -0.7184
    -0.6894  -0.6800  -0.5716  -0.5485  -0.5320  -0.3139  -0.2104  -0.1862
    -0.1346  -0.1200  -0.1014   0.0036   0.0299   0.0932   0.1117   0.1769
     0.1773   0.2147   0.2904   0.3133   0.3392   0.3666   0.3707   0.5787
     0.6843   0.6906   0.8853   0.8875   0.9792   0.9977   1.0064   1.0778
     1.1213   1.2491   1.4130   1.5216   1.5749   1.7320   1.9089   1.9135
     1.9988   2.0070   2.0173   2.2131   2.2162   2.3869   2.3928   2.4484
     2.4967

          k = 0.0000 0.1386 0.0000 (224793 PWs)   bands (ev):

   -48.4494 -48.4493 -48.4493 -48.4493 -48.2793 -48.2793 -48.2793 -48.2793
   -48.2695 -48.2694 -48.2694 -48.2694 -47.5985 -47.5985 -47.5984 -47.5984
   -47.5561 -47.5560 -47.5560 -47.5560 -47.5064 -47.5064 -47.5061 -47.5061
   -47.4134 -47.4112 -47.4084 -47.4071 -47.4069 -47.4048 -47.4035 -47.4035
   -47.3971 -47.3958 -47.3957 -47.3954 -47.3931 -47.3928 -47.3925 -47.3924
   -47.3911 -47.3910 -47.3909 -47.3900 -47.3890 -47.3889 -47.3886 -47.3871
   -47.3869 -47.3869 -47.3869 -47.3852 -47.3821 -47.3808 -47.3805 -47.3802
   -47.3732 -47.3728 -47.3716 -47.3704 -47.3386 -47.3386 -47.3379 -47.3379
   -47.2764 -47.2764 -47.2762 -47.2762  -4.3282  -4.0170  -3.5296  -3.4737
    -3.2110  -3.1539  -2.9926  -2.8943  -2.8459  -2.7493  -2.7472  -2.6802
    -2.6357  -2.5739  -2.4480  -2.2844  -2.2710  -2.1350  -2.0231  -1.9612
    -1.9445  -1.8865  -1.8408  -1.8156  -1.5584  -1.4900  -1.4299  -1.3125
    -1.2763  -1.1547  -1.1199  -1.1081  -0.9156  -0.9090  -0.8221  -0.7778
    -0.6743  -0.6603  -0.5650  -0.5370  -0.4760  -0.4166  -0.3287  -0.3274
    -0.2578  -0.2317  -0.1772  -0.0997  -0.0466  -0.0331   0.0396   0.1090
     0.1100   0.2494   0.3816   0.4720   0.4807   0.5907   0.6255   0.6430
     0.6685   0.7181   0.7662   0.8086   0.8588   1.1060   1.1209   1.1598
     1.1801   1.4031   1.4787   1.5149   1.6632   1.7244   1.7791   1.9014
     1.9362   2.0673   2.1753   2.1869   2.1974   2.2446   2.3024   2.4155
     2.4366

          k = 0.0000 0.2772 0.0000 (224766 PWs)   bands (ev):

   -48.4494 -48.4493 -48.4493 -48.4493 -48.2793 -48.2793 -48.2793 -48.2793
   -48.2695 -48.2694 -48.2694 -48.2694 -47.5985 -47.5985 -47.5984 -47.5984
   -47.5561 -47.5560 -47.5560 -47.5560 -47.5064 -47.5064 -47.5061 -47.5061
   -47.4132 -47.4112 -47.4083 -47.4074 -47.4069 -47.4050 -47.4035 -47.4035
   -47.3972 -47.3958 -47.3957 -47.3951 -47.3931 -47.3928 -47.3925 -47.3923
   -47.3912 -47.3910 -47.3909 -47.3899 -47.3890 -47.3890 -47.3886 -47.3871
   -47.3869 -47.3869 -47.3869 -47.3853 -47.3821 -47.3808 -47.3805 -47.3802
   -47.3732 -47.3727 -47.3716 -47.3704 -47.3386 -47.3386 -47.3379 -47.3379
   -47.2764 -47.2764 -47.2762 -47.2762  -4.2600  -3.9490  -3.7797  -3.4788
    -3.3872  -3.1655  -2.9263  -2.9201  -2.8648  -2.8266  -2.6510  -2.6157
    -2.5329  -2.4995  -2.2980  -2.1954  -2.1650  -2.1282  -2.0659  -1.9830
    -1.9759  -1.8168  -1.7970  -1.6469  -1.6431  -1.5611  -1.3464  -1.3253
    -1.2536  -1.1945  -1.0826  -1.0573  -0.9505  -0.9423  -0.8659  -0.8143
    -0.7970  -0.7807  -0.6384  -0.5964  -0.4909  -0.4752  -0.4547  -0.4453
    -0.4122  -0.3604  -0.2930  -0.0693  -0.0613  -0.0572   0.0071   0.0246
     0.1390   0.3963   0.3990   0.4708   0.5552   0.6027   0.6166   0.6573
     0.7116   0.7512   0.8007   0.9162   1.0998   1.1754   1.2494   1.3705
     1.4480   1.4781   1.4794   1.6185   1.6460   1.7209   1.7293   1.7375
     1.8936   2.0229   2.0510   2.1529   2.2032   2.2463   2.3291   2.3632
     2.3906

          k = 0.0000 0.4158 0.0000 (224775 PWs)   bands (ev):

   -48.4494 -48.4493 -48.4493 -48.4493 -48.2793 -48.2793 -48.2793 -48.2793
   -48.2695 -48.2694 -48.2694 -48.2694 -47.5985 -47.5985 -47.5984 -47.5984
   -47.5561 -47.5560 -47.5560 -47.5560 -47.5064 -47.5064 -47.5061 -47.5061
   -47.4131 -47.4112 -47.4082 -47.4076 -47.4069 -47.4051 -47.4035 -47.4035
   -47.3972 -47.3959 -47.3957 -47.3950 -47.3931 -47.3928 -47.3925 -47.3922
   -47.3913 -47.3910 -47.3909 -47.3899 -47.3890 -47.3890 -47.3886 -47.3872
   -47.3869 -47.3869 -47.3869 -47.3853 -47.3821 -47.3808 -47.3804 -47.3802
   -47.3732 -47.3727 -47.3716 -47.3705 -47.3386 -47.3386 -47.3379 -47.3379
   -47.2764 -47.2764 -47.2762 -47.2762  -4.1468  -3.9856  -3.8344  -3.6732
    -3.2829  -3.1308  -3.1215  -3.0496  -2.8221  -2.7424  -2.6409  -2.5363
    -2.4079  -2.3697  -2.3564  -2.2553  -2.1946  -2.0712  -2.0644  -1.7919
    -1.7857  -1.6898  -1.6523  -1.5978  -1.5869  -1.5255  -1.4886  -1.3974
    -1.3195  -1.2898  -1.2873  -1.2328  -1.0513  -0.9704  -0.8629  -0.8075
    -0.7545  -0.7201  -0.7102  -0.6452  -0.6205  -0.5818  -0.5792  -0.5048
    -0.3904  -0.3361  -0.2438  -0.1276  -0.1075  -0.0893   0.0414   0.1298
     0.2960   0.3053   0.3590   0.3895   0.5705   0.5916   0.6725   0.6815
     0.7586   0.9072   1.0239   1.1010   1.1320   1.1341   1.1771   1.2114
     1.2992   1.5268   1.5478   1.5826   1.7290   1.7934   1.8066   1.8552
     1.9067   1.9516   2.0667   2.1733   2.2076   2.2704   2.2721   2.3605
     2.3894

          k = 0.1429 0.0346 0.0000 (224753 PWs)   bands (ev):

   -48.4494 -48.4493 -48.4493 -48.4493 -48.2793 -48.2793 -48.2793 -48.2793
   -48.2695 -48.2694 -48.2694 -48.2694 -47.5985 -47.5985 -47.5984 -47.5984
   -47.5560 -47.5560 -47.5560 -47.5560 -47.5064 -47.5064 -47.5061 -47.5061
   -47.4134 -47.4113 -47.4084 -47.4070 -47.4068 -47.4047 -47.4040 -47.4033
   -47.3971 -47.3960 -47.3954 -47.3954 -47.3933 -47.3928 -47.3926 -47.3924
   -47.3911 -47.3911 -47.3906 -47.3900 -47.3893 -47.3890 -47.3881 -47.3871
   -47.3869 -47.3869 -47.3869 -47.3853 -47.3820 -47.3808 -47.3806 -47.3802
   -47.3732 -47.3729 -47.3715 -47.3704 -47.3386 -47.3386 -47.3380 -47.3379
   -47.2764 -47.2764 -47.2763 -47.2762  -4.3254  -4.0141  -3.4698  -3.4282
    -3.2879  -3.1291  -3.1187  -2.9706  -2.8123  -2.7868  -2.7323  -2.7130
    -2.5890  -2.4638  -2.4083  -2.3924  -2.2522  -2.2239  -1.9618  -1.9196
    -1.9067  -1.8675  -1.8592  -1.7588  -1.6459  -1.5432  -1.4949  -1.3427
    -1.1887  -1.1177  -1.0522  -1.0180  -1.0016  -0.9471  -0.7964  -0.7256
    -0.6332  -0.5989  -0.5420  -0.5065  -0.3778  -0.3733  -0.2528  -0.2382
    -0.1953  -0.1317  -0.0953  -0.0924  -0.0670  -0.0206   0.0389   0.0973
     0.1217   0.1750   0.2666   0.3411   0.4245   0.4273   0.4759   0.6049
     0.6489   0.6697   0.6768   0.7575   0.8218   0.9613   1.0074   1.0834
     1.1391   1.3644   1.4540   1.4956   1.5043   1.7234   1.7811   1.8471
     1.8986   2.0032   2.0688   2.2972   2.3359   2.4036   2.4334   2.4991
     2.5241

          k = 0.1429 0.1732 0.0000 (224696 PWs)   bands (ev):

   -48.4494 -48.4493 -48.4493 -48.4493 -48.2793 -48.2793 -48.2793 -48.2793
   -48.2695 -48.2694 -48.2694 -48.2694 -47.5985 -47.5985 -47.5984 -47.5984
   -47.5560 -47.5560 -47.5560 -47.5560 -47.5064 -47.5064 -47.5061 -47.5061
   -47.4133 -47.4113 -47.4083 -47.4070 -47.4070 -47.4048 -47.4039 -47.4033
   -47.3971 -47.3959 -47.3954 -47.3952 -47.3934 -47.3927 -47.3925 -47.3924
   -47.3912 -47.3911 -47.3906 -47.3900 -47.3895 -47.3890 -47.3880 -47.3871
   -47.3869 -47.3869 -47.3869 -47.3854 -47.3820 -47.3808 -47.3806 -47.3802
   -47.3732 -47.3728 -47.3715 -47.3704 -47.3386 -47.3386 -47.3380 -47.3379
   -47.2764 -47.2764 -47.2763 -47.2762  -4.2913  -3.9800  -3.5723  -3.4743
    -3.4382  -3.2519  -3.1647  -2.7833  -2.7393  -2.6436  -2.6272  -2.5973
    -2.5175  -2.4605  -2.4320  -2.2839  -2.2144  -2.1899  -2.1125  -1.9800
    -1.9072  -1.9042  -1.8925  -1.8301  -1.7069  -1.6254  -1.5369  -1.3199
    -1.1703  -1.1315  -1.1305  -0.9644  -0.8944  -0.8736  -0.7934  -0.7404
    -0.6600  -0.5731  -0.5324  -0.5252  -0.4635  -0.4222  -0.4174  -0.3581
    -0.2164  -0.1991  -0.1692  -0.1618  -0.0451  -0.0319  -0.0157   0.0715
     0.1744   0.1947   0.3254   0.3960   0.4957   0.5431   0.5838   0.6051
     0.7103   0.7274   0.7745   0.8350   0.9821   1.0684   1.0814   1.1033
     1.1161   1.4050   1.4603   1.4757   1.5299   1.6722   1.6991   1.8836
     1.9872   2.0008   2.1404   2.1893   2.2162   2.2724   2.3667   2.3811
     2.4379

          k = 0.1429 0.3118 0.0000 (224751 PWs)   bands (ev):

   -48.4494 -48.4493 -48.4493 -48.4493 -48.2793 -48.2793 -48.2793 -48.2793
   -48.2695 -48.2694 -48.2694 -48.2694 -47.5985 -47.5985 -47.5984 -47.5984
   -47.5561 -47.5560 -47.5560 -47.5560 -47.5064 -47.5064 -47.5061 -47.5061
   -47.4131 -47.4113 -47.4082 -47.4073 -47.4070 -47.4049 -47.4039 -47.4033
   -47.3971 -47.3959 -47.3954 -47.3950 -47.3934 -47.3927 -47.3925 -47.3924
   -47.3912 -47.3911 -47.3906 -47.3899 -47.3895 -47.3890 -47.3880 -47.3871
   -47.3869 -47.3869 -47.3869 -47.3854 -47.3820 -47.3808 -47.3805 -47.3802
   -47.3732 -47.3728 -47.3715 -47.3705 -47.3386 -47.3386 -47.3380 -47.3379
   -47.2764 -47.2764 -47.2763 -47.2762  -4.2117  -3.9013  -3.8103  -3.5039
    -3.4743  -3.3448  -3.1647  -2.9496  -2.6271  -2.6022  -2.5974  -2.5175
    -2.4320  -2.3744  -2.2838  -2.2144  -2.1968  -2.1901  -2.1126  -2.0687
    -1.9073  -1.8924  -1.7680  -1.7064  -1.6259  -1.5369  -1.5198  -1.3557
    -1.3200  -1.1968  -1.1321  -0.9637  -0.9077  -0.8725  -0.8383  -0.7973
    -0.7940  -0.7412  -0.6245  -0.5736  -0.5316  -0.4996  -0.4634  -0.4170
    -0.3952  -0.2630  -0.2160  -0.1601  -0.0501  -0.0463   0.0440   0.1751
     0.1937   0.2694   0.3727   0.3948   0.4326   0.5431   0.6054   0.6425
     0.7144   0.7267   0.9277   0.9835   1.0234   1.0681   1.1012   1.2805
     1.3009   1.3604   1.4358   1.4594   1.5361   1.6719   1.7444   1.8648
     1.9988   2.0314   2.0753   2.2009   2.2201   2.2717   2.3668   2.3771
     2.4670

          k = 0.1429 0.4504 0.0000 (224764 PWs)   bands (ev):

   -48.4494 -48.4493 -48.4493 -48.4493 -48.2793 -48.2793 -48.2793 -48.2793
   -48.2695 -48.2694 -48.2694 -48.2694 -47.5985 -47.5985 -47.5984 -47.5984
   -47.5561 -47.5560 -47.5560 -47.5560 -47.5064 -47.5064 -47.5061 -47.5061
   -47.4130 -47.4113 -47.4082 -47.4075 -47.4070 -47.4050 -47.4040 -47.4033
   -47.3971 -47.3960 -47.3954 -47.3949 -47.3933 -47.3928 -47.3925 -47.3923
   -47.3913 -47.3911 -47.3906 -47.3900 -47.3893 -47.3890 -47.3881 -47.3872
   -47.3869 -47.3869 -47.3869 -47.3854 -47.3820 -47.3808 -47.3805 -47.3802
   -47.3732 -47.3727 -47.3715 -47.3706 -47.3386 -47.3386 -47.3380 -47.3379
   -47.2764 -47.2764 -47.2763 -47.2762  -4.0881  -4.0042  -3.7762  -3.6914
    -3.4282  -3.2241  -3.1404  -3.1187  -2.7868  -2.7130  -2.5891  -2.4774
    -2.4636  -2.3925  -2.3884  -2.2239  -1.9626  -1.9353  -1.9063  -1.8673
    -1.8588  -1.7592  -1.6996  -1.6880  -1.6020  -1.5432  -1.5386  -1.3841
    -1.3429  -1.1898  -1.1165  -1.1069  -1.0525  -1.0014  -0.9469  -0.8865
    -0.7256  -0.6950  -0.6675  -0.6089  -0.5987  -0.5512  -0.5411  -0.5069
    -0.3715  -0.3050  -0.2382  -0.1948  -0.1074  -0.0951  -0.0671   0.1730
     0.2642   0.3378   0.3396   0.4230   0.4757   0.5990   0.6489   0.6764
     0.6946   0.7679   0.8229   0.9624   1.0335   1.0813   1.1373   1.1413
     1.2239   1.3447   1.4529   1.5531   1.6087   1.7795   1.7809   1.8857
     1.8978   2.0366   2.1457   2.2652   2.3950   2.4057   2.4115   2.4334
     2.4447

          k = 0.1429-0.3811 0.0000 (224730 PWs)   bands (ev):

   -48.4494 -48.4493 -48.4493 -48.4493 -48.2793 -48.2793 -48.2793 -48.2793
   -48.2695 -48.2694 -48.2694 -48.2694 -47.5985 -47.5985 -47.5984 -47.5984
   -47.5561 -47.5560 -47.5560 -47.5560 -47.5064 -47.5064 -47.5061 -47.5061
   -47.4130 -47.4113 -47.4082 -47.4075 -47.4070 -47.4050 -47.4040 -47.4034
   -47.3971 -47.3960 -47.3954 -47.3949 -47.3931 -47.3928 -47.3925 -47.3923
   -47.3913 -47.3912 -47.3907 -47.3900 -47.3892 -47.3890 -47.3883 -47.3872
   -47.3869 -47.3869 -47.3869 -47.3854 -47.3820 -47.3808 -47.3805 -47.3802
   -47.3732 -47.3727 -47.3715 -47.3706 -47.3386 -47.3386 -47.3380 -47.3379
   -47.2764 -47.2764 -47.2763 -47.2762  -4.1550  -3.9155  -3.8417  -3.6029
    -3.3363  -3.2907  -3.0507  -3.0340  -3.0059  -2.7853  -2.7016  -2.5447
    -2.5124  -2.4333  -2.2987  -2.1604  -2.1443  -1.9787  -1.9433  -1.8619
    -1.7108  -1.7066  -1.6520  -1.4877  -1.4621  -1.4479  -1.4136  -1.3566
    -1.3155  -1.2242  -1.1749  -1.1464  -1.0713  -1.0341  -0.9102  -0.7697
    -0.7672  -0.6913  -0.6531  -0.6485  -0.6129  -0.5950  -0.5398  -0.5092
    -0.4609  -0.4243  -0.3265  -0.2909  -0.0684  -0.0573   0.0900   0.1042
     0.2025   0.2525   0.3453   0.3503   0.4324   0.5230   0.5662   0.6316
     0.6879   0.8062   0.8368   0.9198   0.9900   1.1462   1.2571   1.2823
     1.2893   1.3344   1.3642   1.4799   1.5514   1.7777   1.8174   1.8592
     2.0142   2.0594   2.1126   2.1510   2.3476   2.3848   2.4156   2.4370
     2.5055

          k = 0.1429-0.2425 0.0000 (224679 PWs)   bands (ev):

   -48.4494 -48.4493 -48.4493 -48.4493 -48.2793 -48.2793 -48.2793 -48.2793
   -48.2695 -48.2694 -48.2694 -48.2694 -47.5985 -47.5985 -47.5984 -47.5984
   -47.5560 -47.5560 -47.5560 -47.5560 -47.5064 -47.5064 -47.5061 -47.5061
   -47.4132 -47.4112 -47.4083 -47.4072 -47.4070 -47.4048 -47.4040 -47.4034
   -47.3971 -47.3961 -47.3954 -47.3951 -47.3930 -47.3929 -47.3925 -47.3924
   -47.3912 -47.3912 -47.3907 -47.3900 -47.3890 -47.3890 -47.3883 -47.3871
   -47.3869 -47.3869 -47.3869 -47.3854 -47.3820 -47.3808 -47.3805 -47.3802
   -47.3732 -47.3728 -47.3715 -47.3705 -47.3386 -47.3386 -47.3380 -47.3379
   -47.2764 -47.2764 -47.2763 -47.2762  -4.2571  -3.9460  -3.6973  -3.4234
    -3.3574  -3.2135  -3.1821  -2.9027  -2.8764  -2.8408  -2.7995  -2.6499
    -2.5722  -2.5112  -2.3444  -2.3038  -2.2700  -2.0861  -1.9614  -1.8129
    -1.7160  -1.7044  -1.6945  -1.5819  -1.5563  -1.3707  -1.3627  -1.2459
    -1.2322  -1.1196  -1.1035  -0.9964  -0.9330  -0.8668  -0.8525  -0.8358
    -0.7915  -0.7712  -0.7276  -0.7068  -0.6388  -0.5814  -0.5328  -0.3852
    -0.2881  -0.2779  -0.2338  -0.2220  -0.0629  -0.0263  -0.0261  -0.0030
     0.0360   0.1196   0.3538   0.3883   0.4904   0.5015   0.5362   0.5512
     0.6467   0.7302   0.8072   0.8771   0.9701   1.1854   1.1891   1.2008
     1.2285   1.3786   1.4629   1.5391   1.5515   1.6517   1.6928   1.8624
     2.0546   2.0615   2.1386   2.2010   2.2209   2.2515   2.3653   2.4732
     2.4927

          k = 0.1429-0.1039 0.0000 (224770 PWs)   bands (ev):

   -48.4494 -48.4493 -48.4493 -48.4493 -48.2793 -48.2793 -48.2793 -48.2793
   -48.2695 -48.2694 -48.2694 -48.2694 -47.5985 -47.5985 -47.5984 -47.5984
   -47.5560 -47.5560 -47.5560 -47.5560 -47.5064 -47.5064 -47.5061 -47.5061
   -47.4133 -47.4113 -47.4084 -47.4070 -47.4069 -47.4047 -47.4040 -47.4034
   -47.3971 -47.3960 -47.3954 -47.3953 -47.3931 -47.3928 -47.3926 -47.3924
   -47.3912 -47.3911 -47.3907 -47.3900 -47.3891 -47.3890 -47.3883 -47.3871
   -47.3869 -47.3869 -47.3869 -47.3853 -47.3820 -47.3808 -47.3806 -47.3802
   -47.3732 -47.3729 -47.3715 -47.3704 -47.3386 -47.3386 -47.3380 -47.3379
   -47.2764 -47.2764 -47.2763 -47.2762  -4.3140  -4.0028  -3.4590  -3.4356
    -3.3363  -3.1181  -3.0340  -3.0059  -2.9588  -2.7853  -2.7257  -2.7016
    -2.6441  -2.5475  -2.5125  -2.4332  -2.1443  -2.0850  -1.9787  -1.9432
    -1.9225  -1.7744  -1.7108  -1.6520  -1.4873  -1.4136  -1.3566  -1.3343
    -1.2235  -1.1753  -1.0715  -1.0481  -1.0341  -0.9102  -0.8768  -0.7679
    -0.6132  -0.5957  -0.5394  -0.5156  -0.4610  -0.4552  -0.4248  -0.3791
    -0.3273  -0.1558  -0.1302  -0.1135  -0.0905  -0.0575  -0.0140   0.0904
     0.1576   0.2030   0.2189   0.2532   0.4859   0.5236   0.5377   0.5660
     0.6093   0.6318   0.6808   0.7830   0.8376   0.9813   1.0470   1.1473
     1.2912   1.3341   1.3968   1.4865   1.5218   1.7121   1.7779   1.8961
     1.9452   2.0147   2.0875   2.2959   2.3535   2.3638   2.3800   2.4746
     2.4871

          k = 0.2857 0.0693 0.0000 (224783 PWs)   bands (ev):

   -48.4494 -48.4493 -48.4493 -48.4493 -48.2793 -48.2793 -48.2793 -48.2793
   -48.2695 -48.2694 -48.2694 -48.2694 -47.5985 -47.5984 -47.5984 -47.5984
   -47.5560 -47.5560 -47.5560 -47.5560 -47.5063 -47.5063 -47.5061 -47.5061
   -47.4130 -47.4116 -47.4082 -47.4072 -47.4065 -47.4046 -47.4045 -47.4035
   -47.3969 -47.3961 -47.3951 -47.3948 -47.3936 -47.3929 -47.3927 -47.3925
   -47.3912 -47.3911 -47.3903 -47.3901 -47.3896 -47.3891 -47.3875 -47.3871
   -47.3869 -47.3869 -47.3869 -47.3856 -47.3818 -47.3808 -47.3807 -47.3803
   -47.3732 -47.3729 -47.3713 -47.3706 -47.3385 -47.3385 -47.3381 -47.3380
   -47.2764 -47.2764 -47.2763 -47.2763  -4.2486  -3.9374  -3.7102  -3.3997
    -3.3932  -3.2908  -2.9901  -2.9804  -2.9663  -2.8597  -2.6687  -2.6571
    -2.6570  -2.4075  -2.2865  -2.2176  -2.1665  -2.0969  -2.0663  -1.9582
    -1.8956  -1.8568  -1.8482  -1.6401  -1.5716  -1.4604  -1.3415  -1.3324
    -1.3135  -1.2467  -0.9952  -0.9644  -0.8076  -0.7700  -0.7444  -0.6287
    -0.6140  -0.5552  -0.5315  -0.5035  -0.4990  -0.4637  -0.4493  -0.3106
    -0.2737  -0.2561  -0.2302  -0.1724  -0.0812   0.0428   0.0685   0.0722
     0.1279   0.2116   0.2360   0.2942   0.3011   0.3053   0.3730   0.5126
     0.5277   0.6474   0.6750   0.7797   0.8860   0.9189   0.9729   1.1016
     1.1408   1.2234   1.2556   1.3574   1.5793   1.5885   1.7615   1.8185
     1.9481   2.0645   2.0841   2.2032   2.3773   2.3784   2.4443   2.4527
     2.5220

          k = 0.2857 0.2079 0.0000 (224783 PWs)   bands (ev):

   -48.4494 -48.4493 -48.4493 -48.4493 -48.2793 -48.2793 -48.2793 -48.2793
   -48.2695 -48.2694 -48.2694 -48.2694 -47.5985 -47.5984 -47.5984 -47.5984
   -47.5560 -47.5560 -47.5560 -47.5560 -47.5063 -47.5063 -47.5061 -47.5061
   -47.4129 -47.4116 -47.4081 -47.4073 -47.4067 -47.4046 -47.4046 -47.4034
   -47.3969 -47.3961 -47.3950 -47.3948 -47.3938 -47.3928 -47.3927 -47.3925
   -47.3912 -47.3911 -47.3902 -47.3900 -47.3898 -47.3891 -47.3874 -47.3871
   -47.3869 -47.3869 -47.3869 -47.3857 -47.3818 -47.3808 -47.3807 -47.3803
   -47.3732 -47.3729 -47.3713 -47.3706 -47.3385 -47.3385 -47.3381 -47.3380
   -47.2764 -47.2764 -47.2763 -47.2763  -4.2031  -3.8919  -3.7446  -3.5635
    -3.4342  -3.3540  -3.2389  -2.8912  -2.7150  -2.7093  -2.6220  -2.5655
    -2.5537  -2.3910  -2.2956  -2.2373  -2.1814  -2.1400  -2.0526  -1.9579
    -1.8751  -1.7884  -1.7615  -1.7583  -1.7348  -1.6502  -1.3680  -1.2683
    -1.1901  -1.1212  -1.0360  -1.0049  -0.9363  -0.8892  -0.8236  -0.7557
    -0.6334  -0.5953  -0.5578  -0.4668  -0.4371  -0.4086  -0.3813  -0.3624
    -0.2950  -0.2227  -0.1778  -0.1176  -0.0781  -0.0392  -0.0170  -0.0037
     0.0346   0.0795   0.1614   0.4585   0.4708   0.5018   0.5344   0.5782
     0.6590   0.6880   0.7119   0.7851   0.8395   0.8856   0.9891   1.0751
     1.0972   1.3537   1.4065   1.4258   1.4927   1.5601   1.6542   1.7183
     1.9052   2.0944   2.1372   2.1930   2.2845   2.3102   2.3672   2.4199
     2.4444

          k = 0.2857 0.3465 0.0000 (224722 PWs)   bands (ev):

   -48.4494 -48.4493 -48.4493 -48.4493 -48.2793 -48.2793 -48.2793 -48.2793
   -48.2695 -48.2694 -48.2694 -48.2694 -47.5985 -47.5984 -47.5984 -47.5984
   -47.5560 -47.5560 -47.5560 -47.5560 -47.5063 -47.5063 -47.5061 -47.5061
   -47.4128 -47.4116 -47.4080 -47.4072 -47.4070 -47.4047 -47.4046 -47.4034
   -47.3969 -47.3961 -47.3948 -47.3948 -47.3937 -47.3927 -47.3927 -47.3925
   -47.3913 -47.3912 -47.3903 -47.3900 -47.3897 -47.3891 -47.3874 -47.3871
   -47.3869 -47.3869 -47.3869 -47.3857 -47.3818 -47.3807 -47.3807 -47.3803
   -47.3732 -47.3728 -47.3713 -47.3707 -47.3385 -47.3385 -47.3381 -47.3380
   -47.2764 -47.2764 -47.2763 -47.2763  -4.1121  -3.8077  -3.7841  -3.7332
    -3.4815  -3.4227  -3.2469  -2.9284  -2.8805  -2.8547  -2.5364  -2.5020
    -2.3880  -2.2307  -2.2017  -2.1754  -2.1506  -2.0718  -1.9803  -1.9678
    -1.8966  -1.8831  -1.6697  -1.6672  -1.4958  -1.3904  -1.3491  -1.3364
    -1.3106  -1.2698  -1.1658  -1.0975  -1.0177  -0.9647  -0.7489  -0.7426
    -0.6761  -0.6643  -0.6548  -0.5425  -0.5151  -0.4882  -0.4179  -0.3902
    -0.3729  -0.3396  -0.1593  -0.1168  -0.0864  -0.0819  -0.0031   0.0830
     0.1091   0.1277   0.2299   0.3975   0.3993   0.4611   0.4658   0.5949
     0.6750   0.6848   0.7368   0.7620   0.8551   0.8656   0.9968   1.1131
     1.1339   1.3388   1.3682   1.4028   1.5481   1.6238   1.6747   1.7230
     1.9772   2.0958   2.1746   2.2052   2.2485   2.3563   2.3936   2.4173
     2.4943

          k = 0.2857 0.4851 0.0000 (224815 PWs)   bands (ev):

   -48.4494 -48.4493 -48.4493 -48.4493 -48.2793 -48.2793 -48.2793 -48.2793
   -48.2695 -48.2694 -48.2694 -48.2694 -47.5985 -47.5984 -47.5984 -47.5984
   -47.5560 -47.5560 -47.5560 -47.5560 -47.5063 -47.5063 -47.5061 -47.5061
   -47.4127 -47.4116 -47.4080 -47.4072 -47.4071 -47.4047 -47.4047 -47.4035
   -47.3969 -47.3962 -47.3948 -47.3947 -47.3935 -47.3927 -47.3926 -47.3925
   -47.3913 -47.3912 -47.3903 -47.3900 -47.3895 -47.3891 -47.3875 -47.3872
   -47.3869 -47.3869 -47.3868 -47.3857 -47.3818 -47.3807 -47.3807 -47.3803
   -47.3731 -47.3728 -47.3714 -47.3707 -47.3385 -47.3385 -47.3381 -47.3380
   -47.2764 -47.2764 -47.2763 -47.2763  -3.9883  -3.9614  -3.6775  -3.6758
    -3.6475  -3.3655  -3.1231  -3.1143  -3.0984  -2.8449  -2.7732  -2.3782
    -2.3446  -2.3325  -2.2634  -2.0757  -2.0188  -2.0012  -1.7611  -1.7555
    -1.7494  -1.7045  -1.5877  -1.5499  -1.5010  -1.4622  -1.4279  -1.4278
    -1.3818  -1.2347  -1.1356  -1.0435  -0.9572  -0.8982  -0.8898  -0.7917
    -0.7496  -0.7004  -0.6633  -0.5969  -0.5953  -0.5871  -0.4876  -0.4567
    -0.4115  -0.3680  -0.3079  -0.2097  -0.1112  -0.0691   0.0152   0.1467
     0.1630   0.1806   0.2156   0.2343   0.2729   0.3737   0.4722   0.5164
     0.5270   0.6673   0.8080   0.8114   0.8206   0.9541   1.1055   1.1385
     1.1603   1.1744   1.2215   1.3167   1.5938   1.6190   1.8452   1.9257
     1.9948   2.0418   2.1264   2.1658   2.2744   2.4179   2.4668   2.5118
     2.5608

          k = 0.2857-0.3465 0.0000 (224724 PWs)   bands (ev):

   -48.4494 -48.4493 -48.4493 -48.4493 -48.2793 -48.2793 -48.2793 -48.2793
   -48.2695 -48.2694 -48.2694 -48.2694 -47.5985 -47.5984 -47.5984 -47.5984
   -47.5560 -47.5560 -47.5560 -47.5560 -47.5063 -47.5063 -47.5061 -47.5061
   -47.4128 -47.4115 -47.4080 -47.4072 -47.4070 -47.4048 -47.4047 -47.4035
   -47.3969 -47.3962 -47.3949 -47.3948 -47.3933 -47.3928 -47.3927 -47.3925
   -47.3913 -47.3912 -47.3904 -47.3900 -47.3894 -47.3891 -47.3877 -47.3871
   -47.3869 -47.3869 -47.3868 -47.3857 -47.3817 -47.3807 -47.3807 -47.3803
   -47.3731 -47.3728 -47.3714 -47.3707 -47.3385 -47.3385 -47.3381 -47.3380
   -47.2764 -47.2764 -47.2763 -47.2763  -4.1121  -3.8077  -3.7841  -3.5731
    -3.4815  -3.3327  -3.2599  -3.2469  -3.0203  -2.9284  -2.7096  -2.5020
    -2.4707  -2.3906  -2.2018  -2.1754  -2.0695  -1.9679  -1.8966  -1.7332
    -1.6672  -1.6326  -1.5052  -1.4869  -1.3491  -1.3363  -1.3183  -1.2696
    -1.2061  -1.1076  -1.0611  -1.0177  -1.0139  -0.9646  -0.9377  -0.7898
    -0.7591  -0.7427  -0.7236  -0.6759  -0.6617  -0.6549  -0.5856  -0.5151
    -0.4158  -0.3900  -0.1875  -0.1521  -0.1415  -0.1168  -0.0866  -0.0097
    -0.0037   0.0802   0.0828   0.2303   0.3999   0.4076   0.4611   0.4644
     0.6610   0.6747   0.7044   0.7624   0.8546   0.9496   0.9963   1.1343
     1.1675   1.3140   1.3386   1.4035   1.4987   1.6238   1.6738   1.8834
     1.9765   2.1203   2.1747   2.2056   2.2499   2.4358   2.4729   2.4948
     2.5170

          k = 0.2857-0.2079 0.0000 (224768 PWs)   bands (ev):

   -48.4494 -48.4493 -48.4493 -48.4493 -48.2793 -48.2793 -48.2793 -48.2793
   -48.2695 -48.2694 -48.2694 -48.2694 -47.5985 -47.5984 -47.5984 -47.5984
   -47.5560 -47.5560 -47.5560 -47.5560 -47.5063 -47.5063 -47.5061 -47.5061
   -47.4129 -47.4115 -47.4081 -47.4072 -47.4067 -47.4048 -47.4046 -47.4036
   -47.3969 -47.3962 -47.3950 -47.3949 -47.3932 -47.3928 -47.3928 -47.3925
   -47.3913 -47.3912 -47.3904 -47.3900 -47.3893 -47.3891 -47.3877 -47.3871
   -47.3869 -47.3869 -47.3868 -47.3857 -47.3817 -47.3808 -47.3807 -47.3803
   -47.3731 -47.3729 -47.3714 -47.3706 -47.3385 -47.3385 -47.3381 -47.3380
   -47.2764 -47.2764 -47.2763 -47.2763  -4.2031  -3.8919  -3.5635  -3.5061
    -3.4209  -3.3540  -3.2389  -3.1945  -3.1087  -2.7150  -2.6422  -2.6220
    -2.5656  -2.5607  -2.4026  -2.2956  -2.0816  -1.9579  -1.8993  -1.8207
    -1.7583  -1.7348  -1.5122  -1.4307  -1.3520  -1.2321  -1.2008  -1.1334
    -1.1212  -1.0908  -1.0262  -1.0049  -0.9958  -0.9362  -0.9127  -0.8528
    -0.8236  -0.7782  -0.7554  -0.5953  -0.5548  -0.4667  -0.4639  -0.4001
    -0.3815  -0.3539  -0.2949  -0.2774  -0.1776  -0.1674  -0.0778  -0.0189
     0.0353   0.0796   0.0822   0.1245   0.3763   0.4557   0.4721   0.5337
     0.5778   0.6122   0.6851   0.7841   0.8860   0.9260   0.9881   1.0980
     1.2563   1.3540   1.3728   1.4063   1.4534   1.4933   1.7184   1.7878
     1.9048   2.1387   2.1603   2.1928   2.3086   2.4398   2.4600   2.4856
     2.4907

          k = 0.2857-0.0693 0.0000 (224766 PWs)   bands (ev):

   -48.4494 -48.4493 -48.4493 -48.4493 -48.2793 -48.2793 -48.2793 -48.2793
   -48.2695 -48.2694 -48.2694 -48.2694 -47.5985 -47.5984 -47.5984 -47.5984
   -47.5560 -47.5560 -47.5560 -47.5560 -47.5063 -47.5063 -47.5061 -47.5061
   -47.4130 -47.4116 -47.4082 -47.4072 -47.4065 -47.4047 -47.4045 -47.4035
   -47.3969 -47.3962 -47.3951 -47.3949 -47.3934 -47.3929 -47.3927 -47.3925
   -47.3912 -47.3911 -47.3904 -47.3901 -47.3894 -47.3891 -47.3876 -47.3871
   -47.3869 -47.3869 -47.3868 -47.3856 -47.3817 -47.3808 -47.3807 -47.3803
   -47.3731 -47.3729 -47.3714 -47.3706 -47.3385 -47.3385 -47.3381 -47.3380
   -47.2764 -47.2764 -47.2763 -47.2763  -4.2486  -3.9374  -3.6300  -3.3932
    -3.3206  -3.2908  -3.2268  -2.9804  -2.9663  -2.9219  -2.7635  -2.6571
    -2.6569  -2.4075  -2.3731  -2.3644  -2.0969  -2.0474  -2.0228  -1.8483
    -1.8297  -1.6487  -1.6401  -1.6206  -1.5188  -1.4626  -1.3416  -1.3162
    -1.1843  -0.9644  -0.9524  -0.9103  -0.8564  -0.8248  -0.8075  -0.7754
    -0.7699  -0.6679  -0.6141  -0.5718  -0.5036  -0.4936  -0.4636  -0.4323
    -0.2736  -0.2298  -0.2127  -0.1545  -0.0814  -0.0446   0.0370   0.0430
     0.0688   0.0993   0.1277   0.2115   0.2934   0.3013   0.4335   0.4515
     0.5126   0.6471   0.6584   0.7967   0.8859   0.9621   0.9731   1.1024
     1.1177   1.2195   1.2225   1.3575   1.5669   1.5890   1.7614   1.9486
     1.9692   2.0402   2.0641   2.2045   2.3771   2.4377   2.4510   2.5230
     2.5527

          k = 0.4286 0.1039 0.0000 (224753 PWs)   bands (ev):

   -48.4494 -48.4493 -48.4493 -48.4493 -48.2793 -48.2793 -48.2793 -48.2793
   -48.2695 -48.2694 -48.2694 -48.2694 -47.5985 -47.5984 -47.5984 -47.5984
   -47.5560 -47.5560 -47.5560 -47.5560 -47.5063 -47.5063 -47.5062 -47.5062
   -47.4126 -47.4121 -47.4079 -47.4075 -47.4060 -47.4054 -47.4042 -47.4038
   -47.3966 -47.3963 -47.3948 -47.3945 -47.3938 -47.3934 -47.3926 -47.3925
   -47.3912 -47.3911 -47.3902 -47.3901 -47.3896 -47.3894 -47.3871 -47.3870
   -47.3869 -47.3869 -47.3866 -47.3861 -47.3814 -47.3811 -47.3806 -47.3804
   -47.3731 -47.3730 -47.3711 -47.3708 -47.3384 -47.3383 -47.3382 -47.3382
   -47.2763 -47.2763 -47.2763 -47.2763  -4.1205  -3.9411  -3.8095  -3.6302
    -3.2658  -3.2422  -3.1422  -3.0874  -2.9240  -2.8224  -2.7684  -2.5332
    -2.5154  -2.4525  -2.3657  -2.3518  -2.2464  -2.1913  -1.8912  -1.8122
    -1.7346  -1.6411  -1.5904  -1.5781  -1.4922  -1.4644  -1.4424  -1.3075
    -1.1451  -1.1423  -1.0445  -0.9830  -0.9211  -0.8808  -0.8641  -0.7546
    -0.7260  -0.6844  -0.5967  -0.5570  -0.4321  -0.4020  -0.3455  -0.3132
    -0.2832  -0.1820  -0.1474  -0.1411  -0.0805  -0.0741  -0.0320   0.0412
     0.0885   0.1426   0.1438   0.1980   0.2813   0.3460   0.3898   0.4823
     0.5990   0.6522   0.7577   0.8182   0.8277   0.8892   0.9139   0.9844
     1.0058   1.1545   1.1753   1.3839   1.6005   1.6321   1.6665   1.8596
     1.8636   2.0442   2.0858   2.1797   2.2951   2.3157   2.3622   2.3734
     2.4778

          k = 0.4286 0.2425 0.0000 (224786 PWs)   bands (ev):

   -48.4494 -48.4493 -48.4493 -48.4493 -48.2793 -48.2793 -48.2793 -48.2793
   -48.2695 -48.2694 -48.2694 -48.2694 -47.5985 -47.5984 -47.5984 -47.5984
   -47.5560 -47.5560 -47.5560 -47.5560 -47.5063 -47.5063 -47.5062 -47.5062
   -47.4125 -47.4121 -47.4078 -47.4076 -47.4062 -47.4053 -47.4043 -47.4038
   -47.3966 -47.3963 -47.3946 -47.3945 -47.3939 -47.3932 -47.3926 -47.3925
   -47.3912 -47.3911 -47.3902 -47.3901 -47.3896 -47.3893 -47.3871 -47.3870
   -47.3869 -47.3869 -47.3866 -47.3861 -47.3815 -47.3811 -47.3805 -47.3804
   -47.3731 -47.3730 -47.3711 -47.3709 -47.3384 -47.3383 -47.3382 -47.3382
   -47.2763 -47.2763 -47.2763 -47.2763  -4.0635  -3.9639  -3.7525  -3.6531
    -3.5032  -3.2304  -3.1625  -3.1091  -2.8504  -2.8481  -2.6464  -2.5323
    -2.5291  -2.4571  -2.3851  -2.3739  -2.0820  -1.9681  -1.9672  -1.8931
    -1.6920  -1.6392  -1.6222  -1.5735  -1.5243  -1.4196  -1.3662  -1.3053
    -1.2049  -1.2013  -1.1181  -1.0302  -0.8319  -0.8171  -0.7810  -0.7759
    -0.7747  -0.7093  -0.7045  -0.5515  -0.5104  -0.4513  -0.3973  -0.3332
    -0.2140  -0.1993  -0.1958  -0.1466  -0.1067  -0.0575  -0.0330   0.0671
     0.0917   0.1175   0.1256   0.1323   0.3291   0.3585   0.4639   0.4754
     0.6305   0.6838   0.7530   0.7547   0.8558   0.8905   0.8932   0.9327
     1.0715   1.1338   1.2202   1.3673   1.5837   1.6014   1.6967   1.8397
     1.8963   1.9691   2.1599   2.1839   2.2237   2.2759   2.3784   2.4040
     2.4787

          k = 0.4286 0.3811 0.0000 (224786 PWs)   bands (ev):

   -48.4494 -48.4493 -48.4493 -48.4493 -48.2793 -48.2793 -48.2793 -48.2793
   -48.2695 -48.2694 -48.2694 -48.2694 -47.5985 -47.5984 -47.5984 -47.5984
   -47.5560 -47.5560 -47.5560 -47.5560 -47.5063 -47.5063 -47.5062 -47.5062
   -47.4124 -47.4121 -47.4077 -47.4075 -47.4064 -47.4054 -47.4043 -47.4038
   -47.3967 -47.3963 -47.3945 -47.3945 -47.3938 -47.3931 -47.3926 -47.3926
   -47.3913 -47.3912 -47.3902 -47.3901 -47.3896 -47.3893 -47.3871 -47.3871
   -47.3869 -47.3869 -47.3866 -47.3862 -47.3814 -47.3810 -47.3806 -47.3804
   -47.3731 -47.3729 -47.3711 -47.3709 -47.3384 -47.3383 -47.3382 -47.3382
   -47.2763 -47.2763 -47.2763 -47.2763  -3.9612  -3.9411  -3.7215  -3.6478
    -3.6302  -3.4088  -3.1422  -3.0965  -3.0874  -2.8562  -2.8224  -2.5155
    -2.3657  -2.3506  -2.2464  -2.1913  -2.1054  -1.9824  -1.8122  -1.6804
    -1.6412  -1.5907  -1.5165  -1.4917  -1.4823  -1.4641  -1.4427  -1.3035
    -1.2796  -1.1509  -1.1452  -1.1159  -0.9866  -0.9223  -0.8803  -0.7544
    -0.6152  -0.5953  -0.5902  -0.5577  -0.5515  -0.5031  -0.4536  -0.4313
    -0.3491  -0.2837  -0.2157  -0.1826  -0.1406  -0.1271  -0.0803  -0.0413
     0.0430   0.0961   0.1414   0.1980   0.2102   0.3114   0.3454   0.4085
     0.5980   0.6527   0.6829   0.8179   0.8539   0.8838   0.8891   0.9838
     1.0274   1.1748   1.2154   1.4381   1.5992   1.6341   1.6603   1.7125
     1.8623   2.0220   2.1787   2.2442   2.2928   2.3153   2.3731   2.4692
     2.5141

          k = 0.4286 0.5197 0.0000 (224748 PWs)   bands (ev):

   -48.4494 -48.4493 -48.4493 -48.4493 -48.2793 -48.2793 -48.2793 -48.2793
   -48.2695 -48.2694 -48.2694 -48.2694 -47.5985 -47.5984 -47.5984 -47.5984
   -47.5560 -47.5560 -47.5560 -47.5560 -47.5063 -47.5063 -47.5062 -47.5062
   -47.4124 -47.4120 -47.4077 -47.4075 -47.4065 -47.4055 -47.4044 -47.4039
   -47.3967 -47.3964 -47.3945 -47.3945 -47.3936 -47.3930 -47.3926 -47.3926
   -47.3913 -47.3912 -47.3902 -47.3901 -47.3895 -47.3892 -47.3872 -47.3872
   -47.3869 -47.3869 -47.3866 -47.3862 -47.3814 -47.3810 -47.3806 -47.3804
   -47.3730 -47.3729 -47.3711 -47.3709 -47.3384 -47.3383 -47.3382 -47.3382
   -47.2763 -47.2763 -47.2763 -47.2763  -3.8943  -3.8725  -3.8100  -3.5824
    -3.5619  -3.4972  -3.3911  -3.0915  -3.0296  -2.9985  -2.9462  -2.5315
    -2.2822  -2.2660  -2.1960  -2.1308  -1.9129  -1.8201  -1.7745  -1.7638
    -1.5936  -1.5362  -1.5115  -1.4848  -1.4315  -1.4177  -1.3642  -1.2625
    -1.2379  -1.2157  -1.1562  -1.0380  -0.9464  -0.9201  -0.8897  -0.8360
    -0.7056  -0.6011  -0.5854  -0.5481  -0.5409  -0.5229  -0.4549  -0.4088
    -0.4087  -0.3690  -0.3398  -0.2853  -0.2682  -0.1317  -0.0775  -0.0739
    -0.0431  -0.0000   0.0622   0.0717   0.1790   0.2582   0.3490   0.4922
     0.5149   0.6184   0.6576   0.7579   0.8091   0.8489   0.9312   0.9918
     1.0639   1.2430   1.2716   1.4341   1.4799   1.5911   1.6146   1.7206
     1.9838   1.9959   2.2675   2.2844   2.3157   2.3754   2.4337   2.4371
     2.5310

          k = 0.4286-0.3118 0.0000 (224828 PWs)   bands (ev):

   -48.4494 -48.4493 -48.4493 -48.4493 -48.2793 -48.2793 -48.2793 -48.2793
   -48.2695 -48.2694 -48.2694 -48.2694 -47.5985 -47.5984 -47.5984 -47.5984
   -47.5560 -47.5560 -47.5560 -47.5560 -47.5063 -47.5063 -47.5062 -47.5062
   -47.4124 -47.4119 -47.4078 -47.4074 -47.4063 -47.4056 -47.4043 -47.4039
   -47.3967 -47.3964 -47.3946 -47.3945 -47.3934 -47.3932 -47.3927 -47.3926
   -47.3913 -47.3912 -47.3902 -47.3901 -47.3894 -47.3893 -47.3873 -47.3871
   -47.3869 -47.3869 -47.3866 -47.3861 -47.3814 -47.3810 -47.3806 -47.3804
   -47.3730 -47.3729 -47.3712 -47.3709 -47.3384 -47.3383 -47.3382 -47.3382
   -47.2763 -47.2763 -47.2763 -47.2763  -4.0179  -3.7590  -3.7078  -3.6161
    -3.5971  -3.4466  -3.3099  -3.2847  -3.1506  -2.8945  -2.7550  -2.7331
    -2.4085  -2.1919  -2.1511  -2.0033  -2.0001  -1.9369  -1.8836  -1.7238
    -1.6394  -1.5777  -1.4578  -1.4248  -1.3309  -1.3092  -1.2858  -1.1897
    -1.1568  -1.1073  -1.0658  -1.0551  -0.9762  -0.9553  -0.8688  -0.7580
    -0.6917  -0.6867  -0.6754  -0.6281  -0.6037  -0.5615  -0.4972  -0.4682
    -0.3785  -0.3486  -0.3340  -0.3254  -0.2713  -0.2249  -0.2052  -0.0599
    -0.0553   0.0026   0.1027   0.1498   0.2098   0.2861   0.3210   0.3591
     0.4065   0.6658   0.7215   0.8034   0.8667   0.8759   0.9488   0.9921
     1.0366   1.1412   1.2713   1.4268   1.4437   1.5974   1.6451   1.8269
     1.9096   2.0057   2.2210   2.2904   2.3039   2.3550   2.4382   2.4435
     2.5436

          k = 0.4286-0.1732 0.0000 (224790 PWs)   bands (ev):

   -48.4494 -48.4493 -48.4493 -48.4493 -48.2793 -48.2793 -48.2793 -48.2793
   -48.2695 -48.2694 -48.2694 -48.2694 -47.5985 -47.5984 -47.5984 -47.5984
   -47.5560 -47.5560 -47.5560 -47.5560 -47.5063 -47.5063 -47.5062 -47.5062
   -47.4125 -47.4119 -47.4079 -47.4074 -47.4061 -47.4057 -47.4042 -47.4039
   -47.3966 -47.3964 -47.3947 -47.3945 -47.3934 -47.3933 -47.3927 -47.3925
   -47.3913 -47.3912 -47.3902 -47.3901 -47.3894 -47.3894 -47.3873 -47.3871
   -47.3869 -47.3869 -47.3866 -47.3861 -47.3814 -47.3811 -47.3806 -47.3804
   -47.3730 -47.3730 -47.3712 -47.3708 -47.3384 -47.3383 -47.3382 -47.3382
   -47.2763 -47.2763 -47.2763 -47.2763  -4.0977  -3.7866  -3.7590  -3.5971
    -3.4466  -3.3784  -3.2848  -3.2450  -3.0574  -2.8945  -2.7331  -2.5944
    -2.5465  -2.4486  -2.2703  -2.1510  -2.0002  -1.9369  -1.7894  -1.7236
    -1.7113  -1.6394  -1.6366  -1.4248  -1.3694  -1.3091  -1.2861  -1.1565
    -1.0663  -1.0604  -0.9835  -0.9763  -0.9551  -0.9288  -0.9173  -0.8689
    -0.7307  -0.6866  -0.6282  -0.6172  -0.5711  -0.4959  -0.4683  -0.4575
    -0.3794  -0.3344  -0.2930  -0.2713  -0.2052  -0.1722  -0.0772  -0.0602
    -0.0413  -0.0065   0.1498   0.1618   0.1776   0.2862   0.3592   0.3771
     0.5181   0.6657   0.7565   0.8040   0.8674   0.8778   0.9235   0.9919
     1.0227   1.1817   1.2711   1.3338   1.4435   1.6380   1.6475   1.8778
     1.9079   2.0049   2.1281   2.2839   2.3033   2.3548   2.3981   2.4425
     2.5509

          k = 0.4286-0.0346 0.0000 (224744 PWs)   bands (ev):

   -48.4494 -48.4493 -48.4493 -48.4493 -48.2793 -48.2793 -48.2793 -48.2793
   -48.2695 -48.2694 -48.2694 -48.2694 -47.5985 -47.5984 -47.5984 -47.5984
   -47.5560 -47.5560 -47.5560 -47.5560 -47.5063 -47.5063 -47.5062 -47.5062
   -47.4126 -47.4120 -47.4079 -47.4075 -47.4060 -47.4055 -47.4041 -47.4039
   -47.3966 -47.3964 -47.3948 -47.3945 -47.3936 -47.3934 -47.3926 -47.3925
   -47.3912 -47.3911 -47.3902 -47.3902 -47.3895 -47.3894 -47.3872 -47.3870
   -47.3869 -47.3869 -47.3866 -47.3861 -47.3814 -47.3811 -47.3806 -47.3804
   -47.3730 -47.3730 -47.3711 -47.3708 -47.3384 -47.3383 -47.3382 -47.3382
   -47.2763 -47.2763 -47.2763 -47.2763  -4.1319  -3.8725  -3.8209  -3.5619
    -3.3912  -3.2766  -3.0952  -3.0915  -2.9984  -2.9374  -2.7769  -2.6195
    -2.5397  -2.5315  -2.2660  -2.2130  -2.1307  -2.0575  -1.9129  -1.8200
    -1.7745  -1.7320  -1.5937  -1.4501  -1.4315  -1.3022  -1.2625  -1.2380
    -1.2339  -1.1347  -1.0373  -0.9467  -0.9248  -0.8902  -0.8452  -0.8365
    -0.8063  -0.5929  -0.5845  -0.5481  -0.5231  -0.4387  -0.4089  -0.3689
    -0.3290  -0.2862  -0.2440  -0.1360  -0.1321  -0.0772  -0.0769  -0.0003
     0.0382   0.1590   0.1795   0.1914   0.2578   0.3120   0.3732   0.4005
     0.5153   0.6589   0.7572   0.7777   0.8031   0.8520   0.9320   0.9922
     1.0094   1.1578   1.2730   1.4182   1.4339   1.6146   1.6734   1.8590
     1.9845   2.0694   2.0737   2.2507   2.2679   2.3752   2.4319   2.4368
     2.4927

     the Fermi energy is    -0.8744 ev

!    total energy              =   -1022.52230598 Ry
     total all-electron energy =     -1022.522859 Ry
     estimated scf accuracy    <       0.00000076 Ry
     smearing contrib. (-TS)   =      -0.00149180 Ry
     internal energy E=F+TS    =   -1022.52081418 Ry

     The total energy is F=E-TS. E is the sum of the following terms:
     one-electron contribution =   -4096.36300706 Ry
     hartree contribution      =    1951.53531572 Ry
     xc contribution           =    -243.80723981 Ry
     ewald contribution        =    1360.11960368 Ry
     one-center paw contrib.   =       5.99451330 Ry

     convergence has been achieved in  18 iterations

     Forces acting on atoms (cartesian axes, Ry/au):

     atom    1 type  1   force =    -0.00000474   -0.00002486    0.00021864
     atom    2 type  1   force =    -0.00001134   -0.00012095   -0.00014761
     atom    3 type  1   force =     0.00003134   -0.00007280   -0.00011201
     atom    4 type  1   force =     0.00001173   -0.00019377   -0.00005750
     atom    5 type  1   force =     0.00001283   -0.00002565    0.00035472
     atom    6 type  1   force =     0.00002045    0.00006902   -0.00007049
     atom    7 type  1   force =    -0.00001720   -0.00002073    0.00010004
     atom    8 type  1   force =     0.00000055    0.00010419    0.00017229
     atom    9 type  1   force =     0.00000866   -0.00010529   -0.00012657
     atom   10 type  1   force =     0.00002659   -0.00010020   -0.00014966
     atom   11 type  1   force =    -0.00002716   -0.00003461    0.00015593
     atom   12 type  1   force =    -0.00000254    0.00005653   -0.00021138
     atom   13 type  1   force =    -0.00000999   -0.00000042    0.00005187
     atom   14 type  1   force =    -0.00001490    0.00009439    0.00014250
     atom   15 type  1   force =    -0.00000755    0.00004179   -0.00004935
     atom   16 type  1   force =    -0.00001024    0.00002222    0.00016789
     atom   17 type  1   force =    -0.00000191   -0.00001920    0.00003792
     atom   18 type  1   force =     0.00000889   -0.00004459    0.00004868
     atom   19 type  1   force =     0.00000360   -0.00005350    0.00021057
     atom   20 type  1   force =     0.00002440    0.00003099   -0.00015324
     atom   21 type  1   force =     0.00001334   -0.00009584   -0.00013987
     atom   22 type  1   force =     0.00001515    0.00002048   -0.00010436
     atom   23 type  1   force =     0.00000604    0.00000436   -0.00005146
     atom   24 type  1   force =    -0.00001243    0.00002843   -0.00035236
     atom   25 type  1   force =    -0.00003111    0.00010181    0.00014753
     atom   26 type  1   force =    -0.00000740    0.00010514    0.00012550
     atom   27 type  1   force =    -0.00000345   -0.00010327   -0.00017198
     atom   28 type  1   force =    -0.00002824    0.00007675    0.00011458
     atom   29 type  1   force =     0.00001147    0.00012071    0.00014881
     atom   30 type  1   force =    -0.00002233   -0.00006751    0.00007086
     atom   31 type  1   force =    -0.00000874    0.00019265    0.00005661
     atom   32 type  1   force =     0.00000491    0.00002664   -0.00021895
     atom   33 type  1   force =     0.00000445    0.00001780   -0.00003597
     atom   34 type  1   force =     0.00001216   -0.00002138   -0.00016667
     atom   35 type  1   force =    -0.00000513   -0.00002530    0.00021700
     atom   36 type  1   force =    -0.00001417   -0.00012161   -0.00014769
     atom   37 type  1   force =     0.00002778   -0.00007758   -0.00011325
     atom   38 type  1   force =     0.00001183   -0.00019358   -0.00005732
     atom   39 type  1   force =     0.00001267   -0.00002949    0.00035357
     atom   40 type  1   force =     0.00002169    0.00007022   -0.00007178
     atom   41 type  1   force =    -0.00001747   -0.00002363    0.00010030
     atom   42 type  1   force =     0.00000645    0.00010225    0.00017145
     atom   43 type  1   force =     0.00000934   -0.00010769   -0.00012545
     atom   44 type  1   force =     0.00002850   -0.00009992   -0.00015047
     atom   45 type  1   force =    -0.00002523   -0.00003167    0.00015421
     atom   46 type  1   force =    -0.00000396    0.00005540   -0.00021047
     atom   47 type  1   force =    -0.00000890   -0.00000357    0.00005149
     atom   48 type  1   force =    -0.00001460    0.00009588    0.00014169
     atom   49 type  1   force =    -0.00000612    0.00004508   -0.00005093
     atom   50 type  1   force =    -0.00000981    0.00002107    0.00016803
     atom   51 type  1   force =    -0.00000278   -0.00001900    0.00003717
     atom   52 type  1   force =     0.00000948   -0.00004278    0.00004991
     atom   53 type  1   force =     0.00000100   -0.00005705    0.00021176
     atom   54 type  1   force =     0.00002547    0.00003202   -0.00015715
     atom   55 type  1   force =     0.00001191   -0.00009502   -0.00014253
     atom   56 type  1   force =     0.00001756    0.00002142   -0.00009860
     atom   57 type  1   force =     0.00000565    0.00000250   -0.00005082
     atom   58 type  1   force =    -0.00001640    0.00002458   -0.00035397
     atom   59 type  1   force =    -0.00002946    0.00010142    0.00014902
     atom   60 type  1   force =    -0.00000665    0.00010439    0.00012730
     atom   61 type  1   force =    -0.00000387   -0.00010195   -0.00017464
     atom   62 type  1   force =    -0.00002532    0.00007875    0.00011292
     atom   63 type  1   force =     0.00001400    0.00012217    0.00014970
     atom   64 type  1   force =    -0.00002297   -0.00006693    0.00006985
     atom   65 type  1   force =    -0.00000849    0.00019344    0.00005632
     atom   66 type  1   force =     0.00000752    0.00002350   -0.00021875
     atom   67 type  1   force =     0.00000579    0.00001705   -0.00003567
     atom   68 type  1   force =     0.00000942   -0.00002367   -0.00016768

     Total force =     0.001461     Total SCF correction =     0.000676
     SCF correction compared to forces is large: reduce conv_thr to get better values

     BFGS Geometry Optimization
     Energy error            =      2.1E-06 Ry
     Gradient error          =      3.5E-04 Ry/Bohr

     bfgs converged in   1 scf cycles and   0 bfgs steps
     (criteria: energy <  1.0E-05 Ry, force <  3.9E-04 Ry/Bohr)

     End of BFGS Geometry Optimization

     Final energy             =   -1022.5223059798 Ry
Begin final coordinates

ATOMIC_POSITIONS (angstrom)
Li               0.0059906600        0.2343476600        7.4031943600
Li              -0.0044945800        5.9619607500       20.5926344700
Li               2.4224794000        7.7232738300       19.0768668000
Li               2.4232016800        1.9484227800       19.3813150500
Li              -0.0041072800        3.6239897800       18.1276946600
Li               2.4244706700        5.3861635600       16.4832540200
Li               2.4320616100        8.7952430400       13.1303479000
Li              -0.0045095700        9.4898010800       17.3888370500
Li              -0.0003269900        1.2132123900       15.6248569200
Li               2.4275598100        2.9641475700       13.8288348500
Li               0.0027109400        4.6620123200       12.2418713100
Li               2.4347872700        6.3595586100       10.5376011000
Li              -0.0010334800        7.0837113500       14.8206337600
Li               2.4309719400        0.4808450000       11.6645664400
Li               0.0055293900        2.3104768300        9.7818301700
Li               2.4364711800        3.7699255800        8.0046098100
Li               0.0043993100        8.2120795100        8.9451413600
Li              -0.0055495500        0.6351452400       18.5451931600
Li              -0.0057643500        6.6011762000       17.7894271200
Li               2.4263131200        8.2987236100       16.0851528800
Li               2.4270707400        2.4647704300       16.6624809700
Li              -0.0030440200        4.1654980300       15.1966768400
Li               2.4300575600        5.8770285900       13.5063924400
Li               2.4331312000        9.3367428100       10.1993298000
Li               0.0014593300        9.9965906000       14.4982052300
Li               0.0003173400        1.7324144700       12.7021652900
Li               2.4335355100        3.4709297900       10.9381942100
Li               0.0065458000        5.2374605200        9.2501584200
Li               2.4335058900        6.9987636700        7.7343911000
Li               0.0045494000        7.5745690800       11.8437718400
Li               2.4348462800        0.9972049700        8.9457524100
Li              -0.0058776600        2.7112815100       20.9238296300
Li               2.4246225000        4.7486579300       19.3818882800
Li              -0.0074480600        9.1907909700       20.3224132200
Li               4.8638700400        0.2343319900        7.4031938900
Li               4.8535582200        5.9619487400       20.5926429800
Li               7.2805423300        7.7232769200       19.0768691400
Li               7.2812473800        1.9484274300       19.3813557900
Li               4.8539334800        3.6239929600       18.1276926800
Li               7.2825058000        5.3861658900       16.4832417200
Li               7.2901150800        8.7952456700       13.1303525700
Li               4.8535347000        9.4898124000       17.3888093800
Li               4.8577272700        1.2132134300       15.6248570300
Li               7.2856087400        2.9641500800       13.8288431700
Li               4.8607521100        4.6620174800       12.2418687200
Li               7.2928236400        6.3595473200       10.5375798800
Li               4.8570140200        7.0837133100       14.8206454900
Li               7.2890141700        0.4808669700       11.6644934500
Li               4.8636097000        2.3104745500        9.7818277100
Li               7.2945197100        3.7699878800        8.0046351300
Li               4.8624396700        8.2120674600        8.9451453100
Li               4.8525071300        0.6351457500       18.5451912900
Li               4.8522836800        6.6011907600       17.7894445100
Li               7.2843621900        8.2987261600       16.0851543200
Li               7.2851159100        2.4647741500       16.6625016900
Li               4.8549961800        4.1654960100       15.1966708200
Li               7.2880998500        5.8770291700       13.5063795700
Li               7.2911736700        9.3367428600       10.1993306200
Li               4.8595000900        9.9965960600       14.4981599900
Li               4.8583660600        1.7324192000       12.7021657400
Li               7.2915785000        3.4709308300       10.9382001700
Li               4.8645629000        5.2374551700        9.2501546700
Li               7.2915586600        6.9987885400        7.7343832900
Li               4.8626034400        7.5745808900       11.8437840500
Li               7.2928909100        0.9971872400        8.9456167000
Li               4.8521150700        2.7112701700       20.9238273600
Li               7.2826677300        4.7486596100       19.3818748600
Li               4.8505895100        9.1907610300       20.3223845900
End final coordinates


     Message from routine punch:
     Nothing written, as per user request (disk_io='none')
 
     init_run     :     14.41s CPU     14.77s WALL (       1 calls)
     electrons    :    309.42s CPU    312.93s WALL (       1 calls)
     forces       :      2.39s CPU      2.44s WALL (       1 calls)

     Called by init_run:
     wfcinit      :      7.39s CPU      7.61s WALL (       1 calls)
     potinit      :      0.45s CPU      0.48s WALL (       1 calls)
     hinit0       :      0.03s CPU      0.05s WALL (       1 calls)

     Called by electrons:
     c_bands      :    272.61s CPU    274.86s WALL (      18 calls)
     sum_band     :     29.08s CPU     29.67s WALL (      18 calls)
     v_of_rho     :      1.91s CPU      2.02s WALL (      19 calls)
     newd         :      0.82s CPU      1.03s WALL (      19 calls)
     PAW_pot      :      0.78s CPU      0.80s WALL (      19 calls)
     mix_rho      :      3.33s CPU      3.45s WALL (      18 calls)

     Called by c_bands:
     init_us_2    :      5.16s CPU      5.19s WALL (     342 calls)
     cegterg      :    202.24s CPU    204.44s WALL (     162 calls)

     Called by *egterg:
     cdiaghg      :     20.89s CPU     21.16s WALL (    1405 calls)
     h_psi        :    114.31s CPU    115.92s WALL (    1414 calls)
     s_psi        :     20.91s CPU     20.95s WALL (    1414 calls)
     g_psi        :      0.22s CPU      0.22s WALL (    1243 calls)

     Called by h_psi:
     h_psi:calbec :     25.47s CPU     25.69s WALL (    1414 calls)
     vloc_psi     :     63.46s CPU     64.76s WALL (    1414 calls)
                                        0.00s GPU  (    1414 calls)
     add_vuspsi   :     24.37s CPU     24.41s WALL (    1414 calls)

     General routines
     calbec       :     34.85s CPU     35.10s WALL (    1612 calls)
     fft          :      1.70s CPU      1.73s WALL (     247 calls)
     ffts         :      2.08s CPU      2.11s WALL (    1852 calls)
     fftw         :     71.15s CPU     72.61s WALL (  149156 calls)
     interpolate  :      0.16s CPU      0.16s WALL (      19 calls)
 
     Parallel routines
 
     PWSCF        :   5m26.93s CPU   5m34.27s WALL

 
   This run was terminated on:   0:41:29  23Jan2025            

=------------------------------------------------------------------------------=
   JOB DONE.
=------------------------------------------------------------------------------=
