
     Program PWSCF v.7.4 starts on  4Jan2025 at 23: 7:31 
        Git branch: develop
        Last git commit: e877ff360aceba4b8d76ffc2fb1c70545fc5dd57
        Last git commit date: Sat Jan 4 12:56:15 2025 +0000
        Last git commit subject: Merge branch 'orthoU' into 'develop'

     This program is part of the open-source Quantum ESPRESSO suite
     for quantum simulation of materials; please cite
         "P. Giannozzi et al., J. Phys.:Condens. Matter 21 395502 (2009);
         "P. Giannozzi et al., J. Phys.:Condens. Matter 29 465901 (2017);
         "P. Giannozzi et al., J. Chem. Phys. 152 154105 (2020);
          URL http://www.quantum-espresso.org", 
     in publications or presentations arising from this work. More details at
     http://www.quantum-espresso.org/quote

     Parallel version (MPI), running on   360 processors

     MPI processes distributed on     9 nodes
     177647 MiB available memory on the printing compute node when the environment starts
 
     Reading input from espresso.pwi
Warning: card &CELL ignored
Warning: card    PRESS_CONV_THR   = 0.1 ignored
Warning: card    CELL_DOFREE      = 'ALL' ignored
Warning: card / ignored
Warning: card &FCP ignored
Warning: card / ignored
Warning: card &RISM ignored
Warning: card / ignored

     Current dimensions of program PWSCF are:
     Max number of different atomic species (ntypx) = 10
     Max number of k-points (npk) =  40000
     Max angular momentum in pseudopotentials (lmaxx) =  4

     IMPORTANT: XC functional enforced from input :
     Exchange-correlation= PBE
                           (   1   4   3   4   0   0   0)
     Any further DFT definition will be discarded
     Please, verify this is what you really want

 
     Reading input from environ.in:
     * using ionic solvent mode
     * setting boundary derivatives method to SSCS default
     * setting electrolyte-boundary derivatives method to SSCS default

Environ Warning (1001): card EOF ignored

     
     Found identity + (  0.0000  0.5000  0.0000) symmetry
     This is a supercell, fractional translations are disabled
 
     K-points division:     npool     =       2
     R & G space division:  proc/nbgrp/npool/nimage =     180
     Subspace diagonalization in iterative solution of the eigenvalue problem:
     a serial algorithm will be used

 
     Parallelization info
     --------------------
     sticks:   dense  smooth     PW     G-vecs:    dense   smooth      PW
     Min          59      23      6                35291     8883    1226
     Max          60      24      7                35360     8972    1295
     Sum       10733    4281   1153              6359029  1608267  224795
 
     Using Slab Decomposition
 


     bravais-lattice index     =            6
     lattice parameter (alat)  =      12.9830  a.u.
     unit-cell volume          =   16640.2915 (a.u.)^3
     number of atoms/cell      =           32
     number of atomic types    =            1
     number of electrons       =        96.00
     number of Kohn-Sham states=           72
     kinetic-energy cutoff     =      80.0000  Ry
     charge density cutoff     =     800.0000  Ry
     scf convergence threshold =      1.0E-06
     mixing beta               =       0.2000
     number of iterations used =            8  local-TF  mixing
     energy convergence thresh.=      1.0E-05
     force convergence thresh. =      3.9E-04
     Exchange-correlation= PBE
                           (   1   4   3   4   0   0   0)
     nstep                     =          999


     ================================================================================
 
                                  Environ Setup Summary

     ================================================================================
 
     Please cite

          O. Andreussi, I. Dabo and N. Marzari, J. Chem. Phys. 136, 064102 (2012)
          F. Nattino, M. Truscott, N. Marzari, and O. Andreussi, J. Chem. Phys. 150, 041722 (2019)

     in publications or presentations arising from this work.

     ================================================================================
 
     Parameters
     ==========

     compensation onset threshold      =               0.1000E+00
     static permittivity               =                    89.90
     surface tension in input (dyn/cm) =                    37.30
     surface tension in internal units =               0.4792E-04

     Solvent Boundary
     ================

     solvent mode                      =                    ionic
     derivatives method                =                   lowmem
     electrolyte derivatives method    =                   lowmem
     numerical core for derivatives    =                      fft
     switching function adopted        =                     SCCS
     density limit for vacuum region   =               0.5000E-02
     density limit for bulk solvent    =               0.1000E-03
     soft-sphere radius mode           =                    bondi
     soft-sphere softness              =                     0.50
     alpha                             =                     1.32

     Electrostatic Setup
     ===================

     electrostatic problem to solve    =                    modpb
     numerical solver adopted          =                   newton
     type of auxiliary density adopted =                     none
     numerical core for poisson        =                      fft
     adopting a nested solver scheme
     inner solver                      =                       cg
     inner core                        =                      fft
     type of pbc corrections           =                parabolic
     numerical core for corrections    =                      1da

     ================================================================================
 

     >>>>> Grand-Canonical SCF is activated <<<<<
     Initial Total Charge  =     0.000000 e
     Target Fermi Energy   =    -3.904000 eV
     Thr. of Fermi Energy  =     0.001000 eV
     Wave-shift of Kerker  =     0.400000 bohr^-1
     Wave-shift of Hartree =     1.500000 bohr^-1
     Mixing Rate of Fermi  =     0.050000

     celldm(1)=  12.983009  celldm(2)=   0.000000  celldm(3)=   7.603873
     celldm(4)=   0.000000  celldm(5)=   0.000000  celldm(6)=   0.000000

     crystal axes: (cart. coord. in units of alat)
               a(1) = (   1.000000   0.000000   0.000000 )  
               a(2) = (   0.000000   1.000000   0.000000 )  
               a(3) = (   0.000000   0.000000   7.603873 )  

     reciprocal axes: (cart. coord. in units 2 pi/alat)
               b(1) = (  1.000000  0.000000  0.000000 )  
               b(2) = (  0.000000  1.000000  0.000000 )  
               b(3) = (  0.000000  0.000000  0.131512 )  


     PseudoPot. # 1 for Li read from file:
     /home/mmm1182/Repos/Pseudopotentials/pslibrary/Li.pbe-sl-kjpaw_psl.1.0.0.UPF
     MD5 check sum: f40bb4162937df3f7c561f1969c76545
     Pseudo is Projector augmented-wave, Zval =  3.0
     Generated using 'atomic' code by A. Dal Corso  v.7.3.1
     Shape of augmentation charge: PSQ
     Using radial grid of 1017 points,  4 beta functions with: 
                l(1) =   0
                l(2) =   0
                l(3) =   1
                l(4) =   1
     Q(r) pseudized with 0 coefficients 


     atomic species   valence    mass     pseudopotential
     Li                3.00     6.94000     Li( 1.00)

      8 Sym. Ops. (no inversion) found


                                    s                        frac. trans.

      isym =  1     identity                                     

 cryst.   s( 1) = (     1          0          0      )
                  (     0          1          0      )
                  (     0          0          1      )

 cart.    s( 1) = (  1.0000000  0.0000000  0.0000000 )
                  (  0.0000000  1.0000000  0.0000000 )
                  (  0.0000000  0.0000000  1.0000000 )


      isym =  2     180 deg rotation - cart. axis [0,0,1]        

 cryst.   s( 2) = (    -1          0          0      )
                  (     0         -1          0      )
                  (     0          0          1      )

 cart.    s( 2) = ( -1.0000000  0.0000000  0.0000000 )
                  (  0.0000000 -1.0000000  0.0000000 )
                  (  0.0000000  0.0000000  1.0000000 )


      isym =  3      90 deg rotation - cart. axis [0,0,-1]       

 cryst.   s( 3) = (     0         -1          0      )
                  (     1          0          0      )
                  (     0          0          1      )

 cart.    s( 3) = (  0.0000000  1.0000000  0.0000000 )
                  ( -1.0000000  0.0000000  0.0000000 )
                  (  0.0000000  0.0000000  1.0000000 )


      isym =  4      90 deg rotation - cart. axis [0,0,1]        

 cryst.   s( 4) = (     0          1          0      )
                  (    -1          0          0      )
                  (     0          0          1      )

 cart.    s( 4) = (  0.0000000 -1.0000000  0.0000000 )
                  (  1.0000000  0.0000000  0.0000000 )
                  (  0.0000000  0.0000000  1.0000000 )


      isym =  5     inv. 180 deg rotation - cart. axis [0,1,0]   

 cryst.   s( 5) = (     1          0          0      )
                  (     0         -1          0      )
                  (     0          0          1      )

 cart.    s( 5) = (  1.0000000  0.0000000  0.0000000 )
                  (  0.0000000 -1.0000000  0.0000000 )
                  (  0.0000000  0.0000000  1.0000000 )


      isym =  6     inv. 180 deg rotation - cart. axis [1,0,0]   

 cryst.   s( 6) = (    -1          0          0      )
                  (     0          1          0      )
                  (     0          0          1      )

 cart.    s( 6) = ( -1.0000000  0.0000000  0.0000000 )
                  (  0.0000000  1.0000000  0.0000000 )
                  (  0.0000000  0.0000000  1.0000000 )


      isym =  7     inv. 180 deg rotation - cart. axis [1,1,0]   

 cryst.   s( 7) = (     0         -1          0      )
                  (    -1          0          0      )
                  (     0          0          1      )

 cart.    s( 7) = (  0.0000000 -1.0000000  0.0000000 )
                  ( -1.0000000  0.0000000  0.0000000 )
                  (  0.0000000  0.0000000  1.0000000 )


      isym =  8     inv. 180 deg rotation - cart. axis [1,-1,0]  

 cryst.   s( 8) = (     0          1          0      )
                  (     1          0          0      )
                  (     0          0          1      )

 cart.    s( 8) = (  0.0000000  1.0000000  0.0000000 )
                  (  1.0000000  0.0000000  0.0000000 )
                  (  0.0000000  0.0000000  1.0000000 )


     point group C_4v (4mm) 
     there are  5 classes
     the character table:

       E     2C4   C2    2s_v  2s_d 
A_1    1.00  1.00  1.00  1.00  1.00
A_2    1.00  1.00  1.00 -1.00 -1.00
B_1    1.00 -1.00  1.00  1.00 -1.00
B_2    1.00 -1.00  1.00 -1.00  1.00
E      2.00  0.00 -2.00  0.00  0.00

     the symmetry operations in each class and the name of the first element:

     E        1
          identity                                               
     2C4      3    4
           90 deg rotation - cart. axis [0,0,-1]                 
     C2       2
          180 deg rotation - cart. axis [0,0,1]                  
     2s_v     5    6
          inv. 180 deg rotation - cart. axis [0,1,0]             
     2s_d     7    8
          inv. 180 deg rotation - cart. axis [1,1,0]             

   Cartesian axes

     site n.     atom                  positions (alat units)
         1        Li     tau(   1) = (  -0.0000000  -0.0000000   3.1708639  )
         2        Li     tau(   2) = (   0.2500000   0.2500000   2.8924023  )
         3        Li     tau(   3) = (  -0.0000000  -0.0000000   3.6712293  )
         4        Li     tau(   4) = (   0.2500012   0.2500012   3.4180341  )
         5        Li     tau(   5) = (  -0.0000000  -0.0000000   4.1858625  )
         6        Li     tau(   6) = (   0.2499994   0.2499994   3.9326724  )
         7        Li     tau(   7) = (  -0.0000000  -0.0000000   4.7114672  )
         8        Li     tau(   8) = (   0.2499973   0.2499973   4.4330282  )
         9        Li     tau(   9) = (  -0.0000000   0.5000000   3.1708714  )
        10        Li     tau(  10) = (   0.2500000   0.7500000   2.8924023  )
        11        Li     tau(  11) = (  -0.0000000   0.5000000   3.6712252  )
        12        Li     tau(  12) = (   0.2500012   0.7499987   3.4180341  )
        13        Li     tau(  13) = (  -0.0000000   0.5000000   4.1858663  )
        14        Li     tau(  14) = (   0.2499994   0.7500005   3.9326724  )
        15        Li     tau(  15) = (  -0.0000000   0.5000000   4.7114663  )
        16        Li     tau(  16) = (   0.2499973   0.7500027   4.4330282  )
        17        Li     tau(  17) = (   0.5000000  -0.0000000   3.1708714  )
        18        Li     tau(  18) = (   0.7500000   0.2500000   2.8924023  )
        19        Li     tau(  19) = (   0.5000000  -0.0000000   3.6712252  )
        20        Li     tau(  20) = (   0.7499987   0.2500012   3.4180341  )
        21        Li     tau(  21) = (   0.5000000  -0.0000000   4.1858663  )
        22        Li     tau(  22) = (   0.7500005   0.2499994   3.9326724  )
        23        Li     tau(  23) = (   0.5000000  -0.0000000   4.7114663  )
        24        Li     tau(  24) = (   0.7500027   0.2499973   4.4330282  )
        25        Li     tau(  25) = (   0.5000000   0.5000000   3.1708714  )
        26        Li     tau(  26) = (   0.7500000   0.7500000   2.8924023  )
        27        Li     tau(  27) = (   0.5000000   0.5000000   3.6712149  )
        28        Li     tau(  28) = (   0.7499987   0.7499987   3.4180341  )
        29        Li     tau(  29) = (   0.5000000   0.5000000   4.1858724  )
        30        Li     tau(  30) = (   0.7500005   0.7500005   3.9326724  )
        31        Li     tau(  31) = (   0.5000000   0.5000000   4.7114655  )
        32        Li     tau(  32) = (   0.7500027   0.7500027   4.4330282  )

   Crystallographic axes

     site n.     atom                  positions (cryst. coord.)
         1        Li     tau(   1) = ( -0.0000000 -0.0000000  0.4170064  )
         2        Li     tau(   2) = (  0.2500000  0.2500000  0.3803854  )
         3        Li     tau(   3) = ( -0.0000000 -0.0000000  0.4828104  )
         4        Li     tau(   4) = (  0.2500012  0.2500012  0.4495123  )
         5        Li     tau(   5) = ( -0.0000000 -0.0000000  0.5504908  )
         6        Li     tau(   6) = (  0.2499994  0.2499994  0.5171933  )
         7        Li     tau(   7) = ( -0.0000000 -0.0000000  0.6196141  )
         8        Li     tau(   8) = (  0.2499973  0.2499973  0.5829961  )
         9        Li     tau(   9) = ( -0.0000000  0.5000000  0.4170074  )
        10        Li     tau(  10) = (  0.2500000  0.7500000  0.3803854  )
        11        Li     tau(  11) = ( -0.0000000  0.5000000  0.4828099  )
        12        Li     tau(  12) = (  0.2500012  0.7499987  0.4495123  )
        13        Li     tau(  13) = ( -0.0000000  0.5000000  0.5504913  )
        14        Li     tau(  14) = (  0.2499994  0.7500005  0.5171933  )
        15        Li     tau(  15) = ( -0.0000000  0.5000000  0.6196140  )
        16        Li     tau(  16) = (  0.2499973  0.7500027  0.5829961  )
        17        Li     tau(  17) = (  0.5000000 -0.0000000  0.4170074  )
        18        Li     tau(  18) = (  0.7500000  0.2500000  0.3803854  )
        19        Li     tau(  19) = (  0.5000000 -0.0000000  0.4828099  )
        20        Li     tau(  20) = (  0.7499987  0.2500012  0.4495123  )
        21        Li     tau(  21) = (  0.5000000 -0.0000000  0.5504913  )
        22        Li     tau(  22) = (  0.7500005  0.2499994  0.5171933  )
        23        Li     tau(  23) = (  0.5000000 -0.0000000  0.6196140  )
        24        Li     tau(  24) = (  0.7500027  0.2499973  0.5829961  )
        25        Li     tau(  25) = (  0.5000000  0.5000000  0.4170074  )
        26        Li     tau(  26) = (  0.7500000  0.7500000  0.3803854  )
        27        Li     tau(  27) = (  0.5000000  0.5000000  0.4828086  )
        28        Li     tau(  28) = (  0.7499987  0.7499987  0.4495123  )
        29        Li     tau(  29) = (  0.5000000  0.5000000  0.5504921  )
        30        Li     tau(  30) = (  0.7500005  0.7500005  0.5171933  )
        31        Li     tau(  31) = (  0.5000000  0.5000000  0.6196139  )
        32        Li     tau(  32) = (  0.7500027  0.7500027  0.5829961  )

     number of k points=    21  Marzari-Vanderbilt smearing, width (Ry)=  0.0100
                       cart. coord. in units 2pi/alat
        k(    1) = (   0.0000000   0.0000000   0.0000000), wk =   0.0200000
        k(    2) = (   0.0000000   0.1000000   0.0000000), wk =   0.0800000
        k(    3) = (   0.0000000   0.2000000   0.0000000), wk =   0.0800000
        k(    4) = (   0.0000000   0.3000000   0.0000000), wk =   0.0800000
        k(    5) = (   0.0000000   0.4000000   0.0000000), wk =   0.0800000
        k(    6) = (   0.0000000  -0.5000000   0.0000000), wk =   0.0400000
        k(    7) = (   0.1000000   0.1000000   0.0000000), wk =   0.0800000
        k(    8) = (   0.1000000   0.2000000   0.0000000), wk =   0.1600000
        k(    9) = (   0.1000000   0.3000000   0.0000000), wk =   0.1600000
        k(   10) = (   0.1000000   0.4000000   0.0000000), wk =   0.1600000
        k(   11) = (   0.1000000  -0.5000000   0.0000000), wk =   0.0800000
        k(   12) = (   0.2000000   0.2000000   0.0000000), wk =   0.0800000
        k(   13) = (   0.2000000   0.3000000   0.0000000), wk =   0.1600000
        k(   14) = (   0.2000000   0.4000000   0.0000000), wk =   0.1600000
        k(   15) = (   0.2000000  -0.5000000   0.0000000), wk =   0.0800000
        k(   16) = (   0.3000000   0.3000000   0.0000000), wk =   0.0800000
        k(   17) = (   0.3000000   0.4000000   0.0000000), wk =   0.1600000
        k(   18) = (   0.3000000  -0.5000000   0.0000000), wk =   0.0800000
        k(   19) = (   0.4000000   0.4000000   0.0000000), wk =   0.0800000
        k(   20) = (   0.4000000  -0.5000000   0.0000000), wk =   0.0800000
        k(   21) = (  -0.5000000  -0.5000000   0.0000000), wk =   0.0200000

                       cryst. coord.
        k(    1) = (   0.0000000   0.0000000   0.0000000), wk =   0.0200000
        k(    2) = (   0.0000000   0.1000000   0.0000000), wk =   0.0800000
        k(    3) = (   0.0000000   0.2000000   0.0000000), wk =   0.0800000
        k(    4) = (   0.0000000   0.3000000   0.0000000), wk =   0.0800000
        k(    5) = (   0.0000000   0.4000000   0.0000000), wk =   0.0800000
        k(    6) = (   0.0000000  -0.5000000   0.0000000), wk =   0.0400000
        k(    7) = (   0.1000000   0.1000000   0.0000000), wk =   0.0800000
        k(    8) = (   0.1000000   0.2000000   0.0000000), wk =   0.1600000
        k(    9) = (   0.1000000   0.3000000   0.0000000), wk =   0.1600000
        k(   10) = (   0.1000000   0.4000000   0.0000000), wk =   0.1600000
        k(   11) = (   0.1000000  -0.5000000   0.0000000), wk =   0.0800000
        k(   12) = (   0.2000000   0.2000000   0.0000000), wk =   0.0800000
        k(   13) = (   0.2000000   0.3000000   0.0000000), wk =   0.1600000
        k(   14) = (   0.2000000   0.4000000   0.0000000), wk =   0.1600000
        k(   15) = (   0.2000000  -0.5000000   0.0000000), wk =   0.0800000
        k(   16) = (   0.3000000   0.3000000   0.0000000), wk =   0.0800000
        k(   17) = (   0.3000000   0.4000000   0.0000000), wk =   0.1600000
        k(   18) = (   0.3000000  -0.5000000   0.0000000), wk =   0.0800000
        k(   19) = (   0.4000000   0.4000000   0.0000000), wk =   0.0800000
        k(   20) = (   0.4000000  -0.5000000   0.0000000), wk =   0.0800000
        k(   21) = (  -0.5000000  -0.5000000   0.0000000), wk =   0.0200000

     Dense  grid:  6359029 G-vectors     FFT dimensions: ( 120, 120, 900)

     Smooth grid:  1608267 G-vectors     FFT dimensions: (  75,  75, 576)

     Dynamical RAM for                 wfc:       1.23 MB

     Dynamical RAM for     wfc (w. buffer):      14.73 MB

     Dynamical RAM for           str. fact:       0.54 MB

     Dynamical RAM for           local pot:       0.00 MB

     Dynamical RAM for          nlocal pot:       4.36 MB

     Dynamical RAM for                qrad:       0.65 MB

     Dynamical RAM for          rho,v,vnew:       3.26 MB

     Dynamical RAM for               rhoin:       1.09 MB

     Dynamical RAM for            rho*nmix:       8.62 MB

     Dynamical RAM for           G-vectors:       2.09 MB

     Dynamical RAM for          h,s,v(r/c):       3.80 MB

     Dynamical RAM for          <psi|beta>:       0.28 MB

     Dynamical RAM for                 psi:       4.91 MB

     Dynamical RAM for                hpsi:       4.91 MB

     Dynamical RAM for                spsi:       4.91 MB

     Dynamical RAM for      wfcinit/wfcrot:       2.57 MB

     Dynamical RAM for           addusdens:      20.47 MB

     Dynamical RAM for          addusforce:      37.19 MB

     Estimated static dynamical RAM per process >      30.54 MB

     Estimated max dynamical RAM per process >      97.03 MB

     Estimated total dynamical RAM >      25.33 GB

     Initial potential from superposition of free atoms

     starting charge      95.8525, renormalised to      96.0000

     negative rho (up, down):  3.009E-03 0.000E+00
     Starting wfcs are random
     Checking if some PAW data can be deallocated... 

     total cpu time spent up to now is        8.7 secs

     per-process dynamical memory:   144.3 Mb

     Self-consistent Calculation

     iteration #  1     ecut=    80.00 Ry     beta= 0.20
     Davidson diagonalization with overlap

---- Real-time Memory Report at c_bands before calling an iterative solver
           420 MiB given to the printing process from OS
           140 MiB allocation reported by mallinfo(arena+hblkhd)
        173730 MiB available memory on the node where the printing process lives
------------------
     c_bands:  1 eigenvalues not converged
     c_bands:  2 eigenvalues not converged
     c_bands:  1 eigenvalues not converged
     c_bands:  2 eigenvalues not converged
     ethr =  1.00E-12,  avg # of iterations =121.0

     negative rho (up, down):  2.179E-03 0.000E+00

     add environment contribution to local potential

     total cpu time spent up to now is      100.6 secs

     total energy              =    -481.16000197 Ry
     estimated scf accuracy    <       0.09029909 Ry

     total charge of GC-SCF    =       0.03819608 e
     the Fermi energy          =      -4.28948359 eV
                        (error :       0.38548359 eV)
     electrostatic embedding   =       0.00000000 Ry
     cavitation energy         =       0.01930244 Ry
     electrolyte free energy   =       0.00716218 Ry
     correction to one-el term =       0.00000000 Ry

     iteration #  2     ecut=    80.00 Ry     beta= 0.20
     Davidson diagonalization with overlap

---- Real-time Memory Report at c_bands before calling an iterative solver
           420 MiB given to the printing process from OS
           165 MiB allocation reported by mallinfo(arena+hblkhd)
        172537 MiB available memory on the node where the printing process lives
------------------
     ethr =  1.00E-05,  avg # of iterations = 16.6

     negative rho (up, down):  1.699E-03 0.000E+00

     add environment contribution to local potential

     total cpu time spent up to now is      116.0 secs

     total energy              =    -481.24066556 Ry
     estimated scf accuracy    <       0.02860002 Ry

     total charge of GC-SCF    =       0.07435796 e
     the Fermi energy          =      -3.43939678 eV
                        (error :       0.46460322 eV)
     electrostatic embedding   =      -0.02410149 Ry
     cavitation energy         =       0.01930244 Ry
     electrolyte free energy   =      -0.00494430 Ry
     correction to one-el term =      -0.90922652 Ry

     iteration #  3     ecut=    80.00 Ry     beta= 0.20
     Davidson diagonalization with overlap

---- Real-time Memory Report at c_bands before calling an iterative solver
           420 MiB given to the printing process from OS
           165 MiB allocation reported by mallinfo(arena+hblkhd)
        172524 MiB available memory on the node where the printing process lives
------------------
     ethr =  1.00E-05,  avg # of iterations =  6.5

     negative rho (up, down):  1.304E-03 0.000E+00

     add environment contribution to local potential

     total cpu time spent up to now is      126.8 secs

     total energy              =    -481.20443356 Ry
     estimated scf accuracy    <       0.01577141 Ry

     total charge of GC-SCF    =       0.19300984 e
     the Fermi energy          =      -3.32333974 eV
                        (error :       0.58066026 eV)
     electrostatic embedding   =      -0.02074424 Ry
     cavitation energy         =       0.01930244 Ry
     electrolyte free energy   =      -0.00467517 Ry
     correction to one-el term =      -1.88517775 Ry

     iteration #  4     ecut=    80.00 Ry     beta= 0.20
     Davidson diagonalization with overlap

---- Real-time Memory Report at c_bands before calling an iterative solver
           420 MiB given to the printing process from OS
           165 MiB allocation reported by mallinfo(arena+hblkhd)
        172517 MiB available memory on the node where the printing process lives
------------------
     ethr =  1.00E-05,  avg # of iterations = 13.7

     negative rho (up, down):  1.076E-03 0.000E+00

     add environment contribution to local potential

     total cpu time spent up to now is      142.6 secs

     total energy              =    -481.22613787 Ry
     estimated scf accuracy    <       0.00414005 Ry

     total charge of GC-SCF    =       0.40946981 e
     the Fermi energy          =      -3.01350578 eV
                        (error :       0.89049422 eV)
     electrostatic embedding   =      -0.01711100 Ry
     cavitation energy         =       0.01930244 Ry
     electrolyte free energy   =      -0.00298442 Ry
     correction to one-el term =      -5.09622741 Ry

     iteration #  5     ecut=    80.00 Ry     beta= 0.20
     Davidson diagonalization with overlap

---- Real-time Memory Report at c_bands before calling an iterative solver
           420 MiB given to the printing process from OS
           165 MiB allocation reported by mallinfo(arena+hblkhd)
        172520 MiB available memory on the node where the printing process lives
------------------
     ethr =  4.33E-06,  avg # of iterations =  9.9

     negative rho (up, down):  8.792E-04 0.000E+00

     add environment contribution to local potential

     total cpu time spent up to now is      155.3 secs

     total energy              =    -481.21914313 Ry
     estimated scf accuracy    <       0.00436798 Ry

     total charge of GC-SCF    =       0.71767336 e
     the Fermi energy          =      -3.26657153 eV
                        (error :       0.63742847 eV)
     electrostatic embedding   =      -0.02830650 Ry
     cavitation energy         =       0.01930244 Ry
     electrolyte free energy   =      -0.00418330 Ry
     correction to one-el term =     -10.61152470 Ry

     iteration #  6     ecut=    80.00 Ry     beta= 0.20
     Davidson diagonalization with overlap

---- Real-time Memory Report at c_bands before calling an iterative solver
           420 MiB given to the printing process from OS
           165 MiB allocation reported by mallinfo(arena+hblkhd)
        172519 MiB available memory on the node where the printing process lives
------------------
     ethr =  4.33E-06,  avg # of iterations = 11.1

     negative rho (up, down):  7.520E-04 0.000E+00

     add environment contribution to local potential

     total cpu time spent up to now is      169.6 secs

     total energy              =    -481.28240540 Ry
     estimated scf accuracy    <       0.00365674 Ry

     total charge of GC-SCF    =       0.85371562 e
     the Fermi energy          =      -2.97306280 eV
                        (error :       0.93093720 eV)
     electrostatic embedding   =      -0.08211825 Ry
     cavitation energy         =       0.01930244 Ry
     electrolyte free energy   =      -0.00310870 Ry
     correction to one-el term =     -19.32825380 Ry

     iteration #  7     ecut=    80.00 Ry     beta= 0.20
     Davidson diagonalization with overlap

---- Real-time Memory Report at c_bands before calling an iterative solver
           420 MiB given to the printing process from OS
           165 MiB allocation reported by mallinfo(arena+hblkhd)
        172515 MiB available memory on the node where the printing process lives
------------------
     ethr =  3.84E-06,  avg # of iterations =  6.3

     negative rho (up, down):  6.740E-04 0.000E+00

     add environment contribution to local potential

     total cpu time spent up to now is      180.2 secs

     total energy              =    -481.28220443 Ry
     estimated scf accuracy    <       0.00208986 Ry

     total charge of GC-SCF    =       0.98075527 e
     the Fermi energy          =      -3.02774438 eV
                        (error :       0.87625562 eV)
     electrostatic embedding   =      -0.11580636 Ry
     cavitation energy         =       0.01930244 Ry
     electrolyte free energy   =      -0.00381422 Ry
     correction to one-el term =     -23.49882986 Ry

     iteration #  8     ecut=    80.00 Ry     beta= 0.20
     Davidson diagonalization with overlap

---- Real-time Memory Report at c_bands before calling an iterative solver
           420 MiB given to the printing process from OS
           165 MiB allocation reported by mallinfo(arena+hblkhd)
        172515 MiB available memory on the node where the printing process lives
------------------
     ethr =  2.20E-06,  avg # of iterations = 11.5

     negative rho (up, down):  6.358E-04 0.000E+00

     add environment contribution to local potential

     total cpu time spent up to now is      194.1 secs

     total energy              =    -481.27190604 Ry
     estimated scf accuracy    <       0.00265681 Ry

     total charge of GC-SCF    =       1.18746781 e
     the Fermi energy          =      -3.31844422 eV
                        (error :       0.58555578 eV)
     electrostatic embedding   =      -0.14912906 Ry
     cavitation energy         =       0.01930244 Ry
     electrolyte free energy   =      -0.00580413 Ry
     correction to one-el term =     -27.26128633 Ry

     iteration #  9     ecut=    80.00 Ry     beta= 0.20
     Davidson diagonalization with overlap

---- Real-time Memory Report at c_bands before calling an iterative solver
           420 MiB given to the printing process from OS
           165 MiB allocation reported by mallinfo(arena+hblkhd)
        172508 MiB available memory on the node where the printing process lives
------------------
     ethr =  2.20E-06,  avg # of iterations =  8.6

     negative rho (up, down):  8.951E-04 0.000E+00

     add environment contribution to local potential

     total cpu time spent up to now is      205.8 secs

     total energy              =    -481.27300849 Ry
     estimated scf accuracy    <       0.00224889 Ry

     total charge of GC-SCF    =       1.48028395 e
     the Fermi energy          =      -3.46028023 eV
                        (error :       0.44371977 eV)
     electrostatic embedding   =      -0.22281258 Ry
     cavitation energy         =       0.01930244 Ry
     electrolyte free energy   =      -0.00743494 Ry
     correction to one-el term =     -33.51108209 Ry

     iteration # 10     ecut=    80.00 Ry     beta= 0.20
     Davidson diagonalization with overlap

---- Real-time Memory Report at c_bands before calling an iterative solver
           420 MiB given to the printing process from OS
           165 MiB allocation reported by mallinfo(arena+hblkhd)
        172482 MiB available memory on the node where the printing process lives
------------------
     ethr =  2.20E-06,  avg # of iterations = 19.3

     negative rho (up, down):  6.506E-04 0.000E+00

     add environment contribution to local potential

     total cpu time spent up to now is      223.6 secs

     total energy              =    -481.30266461 Ry
     estimated scf accuracy    <       0.00063602 Ry

     total charge of GC-SCF    =       1.58230402 e
     the Fermi energy          =      -3.53645115 eV
                        (error :       0.36754885 eV)
     electrostatic embedding   =      -0.35995730 Ry
     cavitation energy         =       0.01930244 Ry
     electrolyte free energy   =      -0.00958280 Ry
     correction to one-el term =     -42.47454595 Ry

     iteration # 11     ecut=    80.00 Ry     beta= 0.20
     Davidson diagonalization with overlap

---- Real-time Memory Report at c_bands before calling an iterative solver
           420 MiB given to the printing process from OS
           165 MiB allocation reported by mallinfo(arena+hblkhd)
        172482 MiB available memory on the node where the printing process lives
------------------
     ethr =  6.74E-07,  avg # of iterations = 14.9

     negative rho (up, down):  5.964E-04 0.000E+00

     add environment contribution to local potential

     total cpu time spent up to now is      240.2 secs

     total energy              =    -481.30018325 Ry
     estimated scf accuracy    <       0.00032542 Ry

     total charge of GC-SCF    =       1.78783472 e
     the Fermi energy          =      -3.60360756 eV
                        (error :       0.30039244 eV)
     electrostatic embedding   =      -0.41970285 Ry
     cavitation energy         =       0.01930244 Ry
     electrolyte free energy   =      -0.01061936 Ry
     correction to one-el term =     -45.88717347 Ry

     iteration # 12     ecut=    80.00 Ry     beta= 0.20
     Davidson diagonalization with overlap

---- Real-time Memory Report at c_bands before calling an iterative solver
           420 MiB given to the printing process from OS
           165 MiB allocation reported by mallinfo(arena+hblkhd)
        172471 MiB available memory on the node where the printing process lives
------------------
     ethr =  3.45E-07,  avg # of iterations = 16.6

     negative rho (up, down):  5.354E-04 0.000E+00

     add environment contribution to local potential

     total cpu time spent up to now is      257.9 secs

     total energy              =    -481.31151076 Ry
     estimated scf accuracy    <       0.00006223 Ry

     total charge of GC-SCF    =       1.81785503 e
     the Fermi energy          =      -3.81115692 eV
                        (error :       0.09284308 eV)
     electrostatic embedding   =      -0.54739968 Ry
     cavitation energy         =       0.01930244 Ry
     electrolyte free energy   =      -0.01277944 Ry
     correction to one-el term =     -52.32328175 Ry

     iteration # 13     ecut=    80.00 Ry     beta= 0.20
     Davidson diagonalization with overlap

---- Real-time Memory Report at c_bands before calling an iterative solver
           420 MiB given to the printing process from OS
           165 MiB allocation reported by mallinfo(arena+hblkhd)
        172478 MiB available memory on the node where the printing process lives
------------------
     ethr =  6.61E-08,  avg # of iterations = 14.0

     negative rho (up, down):  4.450E-04 0.000E+00

     add environment contribution to local potential

     total cpu time spent up to now is      273.3 secs

     total energy              =    -481.31158464 Ry
     estimated scf accuracy    <       0.00003501 Ry

     total charge of GC-SCF    =       1.86978082 e
     the Fermi energy          =      -3.83382088 eV
                        (error :       0.07017912 eV)
     electrostatic embedding   =      -0.56625184 Ry
     cavitation energy         =       0.01930244 Ry
     electrolyte free energy   =      -0.01308456 Ry
     correction to one-el term =     -53.18600091 Ry

     iteration # 14     ecut=    80.00 Ry     beta= 0.20
     Davidson diagonalization with overlap

---- Real-time Memory Report at c_bands before calling an iterative solver
           420 MiB given to the printing process from OS
           165 MiB allocation reported by mallinfo(arena+hblkhd)
        172478 MiB available memory on the node where the printing process lives
------------------
     ethr =  3.72E-08,  avg # of iterations = 11.0

     negative rho (up, down):  4.161E-04 0.000E+00

     add environment contribution to local potential

     total cpu time spent up to now is      287.6 secs

     total energy              =    -481.31213408 Ry
     estimated scf accuracy    <       0.00001502 Ry

     total charge of GC-SCF    =       1.92046892 e
     the Fermi energy          =      -3.87502472 eV
                        (error :       0.02897528 eV)
     electrostatic embedding   =      -0.59967939 Ry
     cavitation energy         =       0.01930244 Ry
     electrolyte free energy   =      -0.01361777 Ry
     correction to one-el term =     -54.65925199 Ry

     iteration # 15     ecut=    80.00 Ry     beta= 0.20
     Davidson diagonalization with overlap

---- Real-time Memory Report at c_bands before calling an iterative solver
           420 MiB given to the printing process from OS
           165 MiB allocation reported by mallinfo(arena+hblkhd)
        172477 MiB available memory on the node where the printing process lives
------------------
     ethr =  1.60E-08,  avg # of iterations = 14.1

     negative rho (up, down):  3.973E-04 0.000E+00

     add environment contribution to local potential

     total cpu time spent up to now is      302.6 secs

     total energy              =    -481.31208863 Ry
     estimated scf accuracy    <       0.00000401 Ry

     total charge of GC-SCF    =       1.92757449 e
     the Fermi energy          =      -3.89771161 eV
                        (error :       0.00628839 eV)
     electrostatic embedding   =      -0.63375021 Ry
     cavitation energy         =       0.01930244 Ry
     electrolyte free energy   =      -0.01412894 Ry
     correction to one-el term =     -56.08041967 Ry

     iteration # 16     ecut=    80.00 Ry     beta= 0.20
     Davidson diagonalization with overlap

---- Real-time Memory Report at c_bands before calling an iterative solver
           420 MiB given to the printing process from OS
           165 MiB allocation reported by mallinfo(arena+hblkhd)
        172481 MiB available memory on the node where the printing process lives
------------------
     ethr =  4.27E-09,  avg # of iterations = 11.0

     negative rho (up, down):  3.930E-04 0.000E+00

     add environment contribution to local potential

     total cpu time spent up to now is      315.7 secs

     total energy              =    -481.31211661 Ry
     estimated scf accuracy    <       0.00000300 Ry

     total charge of GC-SCF    =       1.94430111 e
     the Fermi energy          =      -3.90102770 eV
                        (error :       0.00297230 eV)
     electrostatic embedding   =      -0.63890456 Ry
     cavitation energy         =       0.01930244 Ry
     electrolyte free energy   =      -0.01420737 Ry
     correction to one-el term =     -56.30102851 Ry

     iteration # 17     ecut=    80.00 Ry     beta= 0.20
     Davidson diagonalization with overlap

---- Real-time Memory Report at c_bands before calling an iterative solver
           420 MiB given to the printing process from OS
           165 MiB allocation reported by mallinfo(arena+hblkhd)
        172481 MiB available memory on the node where the printing process lives
------------------
     ethr =  3.19E-09,  avg # of iterations = 15.7

     negative rho (up, down):  4.342E-04 0.000E+00

     add environment contribution to local potential

     total cpu time spent up to now is      332.4 secs

     total energy              =    -481.31207048 Ry
     estimated scf accuracy    <       0.00000131 Ry

     total charge of GC-SCF    =       1.94556220 e
     the Fermi energy          =      -3.90348971 eV
                        (error :       0.00051029 eV)
     electrostatic embedding   =      -0.65096489 Ry
     cavitation energy         =       0.01930244 Ry
     electrolyte free energy   =      -0.01438514 Ry
     correction to one-el term =     -56.80703085 Ry

     iteration # 18     ecut=    80.00 Ry     beta= 0.20
     Davidson diagonalization with overlap

---- Real-time Memory Report at c_bands before calling an iterative solver
           420 MiB given to the printing process from OS
           165 MiB allocation reported by mallinfo(arena+hblkhd)
        172479 MiB available memory on the node where the printing process lives
------------------
     ethr =  1.40E-09,  avg # of iterations = 19.6

     negative rho (up, down):  4.242E-04 0.000E+00

     add environment contribution to local potential

     total cpu time spent up to now is      351.4 secs

     total energy              =    -481.31209171 Ry
     estimated scf accuracy    <       0.00000035 Ry

     total charge of GC-SCF    =       1.94182193 e
     the Fermi energy          =      -3.90118334 eV
                        (error :       0.00281666 eV)
     electrostatic embedding   =      -0.65162180 Ry
     cavitation energy         =       0.01930244 Ry
     electrolyte free energy   =      -0.01439442 Ry
     correction to one-el term =     -56.83864582 Ry

     iteration # 19     ecut=    80.00 Ry     beta= 0.20
     Davidson diagonalization with overlap

---- Real-time Memory Report at c_bands before calling an iterative solver
           420 MiB given to the printing process from OS
           165 MiB allocation reported by mallinfo(arena+hblkhd)
        172480 MiB available memory on the node where the printing process lives
------------------
     ethr =  3.73E-10,  avg # of iterations = 10.8

     negative rho (up, down):  4.092E-04 0.000E+00

     add environment contribution to local potential

     total cpu time spent up to now is      366.7 secs

     total energy              =    -481.31210833 Ry
     estimated scf accuracy    <       0.00000024 Ry

     total charge of GC-SCF    =       1.93912342 e
     the Fermi energy          =      -3.89903989 eV
                        (error :       0.00496011 eV)
     electrostatic embedding   =      -0.64893087 Ry
     cavitation energy         =       0.01930244 Ry
     electrolyte free energy   =      -0.01435228 Ry
     correction to one-el term =     -56.72359390 Ry

     iteration # 20     ecut=    80.00 Ry     beta= 0.20
     Davidson diagonalization with overlap

---- Real-time Memory Report at c_bands before calling an iterative solver
           420 MiB given to the printing process from OS
           165 MiB allocation reported by mallinfo(arena+hblkhd)
        172473 MiB available memory on the node where the printing process lives
------------------
     ethr =  2.58E-10,  avg # of iterations = 11.1

     negative rho (up, down):  4.075E-04 0.000E+00

     add environment contribution to local potential

     total cpu time spent up to now is      381.3 secs

     total energy              =    -481.31211065 Ry
     estimated scf accuracy    <       0.00000021 Ry

     total charge of GC-SCF    =       1.94187236 e
     the Fermi energy          =      -3.89723729 eV
                        (error :       0.00676271 eV)
     electrostatic embedding   =      -0.64701837 Ry
     cavitation energy         =       0.01930244 Ry
     electrolyte free energy   =      -0.01432208 Ry
     correction to one-el term =     -56.64149051 Ry

     iteration # 21     ecut=    80.00 Ry     beta= 0.20
     Davidson diagonalization with overlap

---- Real-time Memory Report at c_bands before calling an iterative solver
           420 MiB given to the printing process from OS
           165 MiB allocation reported by mallinfo(arena+hblkhd)
        172473 MiB available memory on the node where the printing process lives
------------------
     ethr =  2.27E-10,  avg # of iterations = 12.0

     negative rho (up, down):  4.075E-04 0.000E+00

     add environment contribution to local potential

     total cpu time spent up to now is      395.0 secs

     total energy              =    -481.31209875 Ry
     estimated scf accuracy    <       0.00000015 Ry

     total charge of GC-SCF    =       1.94683361 e
     the Fermi energy          =      -3.89915407 eV
                        (error :       0.00484593 eV)
     electrostatic embedding   =      -0.64886961 Ry
     cavitation energy         =       0.01930244 Ry
     electrolyte free energy   =      -0.01435180 Ry
     correction to one-el term =     -56.71773351 Ry

     iteration # 22     ecut=    80.00 Ry     beta= 0.20
     Davidson diagonalization with overlap

---- Real-time Memory Report at c_bands before calling an iterative solver
           420 MiB given to the printing process from OS
           165 MiB allocation reported by mallinfo(arena+hblkhd)
        172475 MiB available memory on the node where the printing process lives
------------------
     ethr =  1.63E-10,  avg # of iterations = 13.2

     negative rho (up, down):  4.064E-04 0.000E+00

     add environment contribution to local potential

     total cpu time spent up to now is      410.2 secs

     total energy              =    -481.31207678 Ry
     estimated scf accuracy    <       0.00000005 Ry

     total charge of GC-SCF    =       1.94834639 e
     the Fermi energy          =      -3.90268741 eV
                        (error :       0.00131259 eV)
     electrostatic embedding   =      -0.65240304 Ry
     cavitation energy         =       0.01930244 Ry
     electrolyte free energy   =      -0.01440812 Ry
     correction to one-el term =     -56.86761439 Ry

     iteration # 23     ecut=    80.00 Ry     beta= 0.20
     Davidson diagonalization with overlap

---- Real-time Memory Report at c_bands before calling an iterative solver
           420 MiB given to the printing process from OS
           165 MiB allocation reported by mallinfo(arena+hblkhd)
        172472 MiB available memory on the node where the printing process lives
------------------
     ethr =  5.37E-11,  avg # of iterations = 11.3

     negative rho (up, down):  3.882E-04 0.000E+00

     total cpu time spent up to now is      420.2 secs

     End of self-consistent calculation

          k = 0.0000 0.0000 0.0000 (201165 PWs)   bands (ev):

   -51.4646 -51.4645 -51.4632 -51.4632 -51.4631 -51.4631 -51.4619 -51.4617
   -50.4621 -50.4617 -50.4568 -50.4567 -50.4567 -50.4567 -50.4553 -50.4552
   -50.4486 -50.4407 -50.4377 -50.4377 -50.4376 -50.4376 -50.4367 -50.4367
   -50.4367 -50.4367 -50.4362 -50.4361 -50.4353 -50.4353 -50.4318 -50.4263
    -7.3217  -6.9652  -6.3623  -5.5378  -4.9019  -4.9019  -4.9019  -4.9019
    -4.5847  -4.5847  -4.5847  -4.5847  -4.4502  -4.0766  -4.0766  -4.0766
    -4.0766  -3.5019  -3.5019  -3.5019  -3.5019  -3.4287  -3.4287  -3.1944
    -2.9730  -2.9730  -2.1639  -2.1639  -2.1448  -1.1865  -1.1865  -1.1620
    -0.8462  -0.8462  -0.8461  -0.8461  -0.6477  -0.6477  -0.6080  -0.6080

     occupation numbers 
     1.0000   1.0000   1.0000   1.0000   1.0000   1.0000   1.0000   1.0000
     1.0000   1.0000   1.0000   1.0000   1.0000   1.0000   1.0000   1.0000
     1.0000   1.0000   1.0000   1.0000   1.0000   1.0000   1.0000   1.0000
     1.0000   1.0000   1.0000   1.0000   1.0000   1.0000   1.0000   1.0000
     1.0000   1.0000   1.0000   1.0000   1.0000   1.0000   1.0000   1.0000
     1.0000   1.0000   1.0000   1.0000   1.0000   1.0775   1.0775   1.0775
     1.0775   0.0000   0.0000   0.0000   0.0000   0.0000   0.0000   0.0000
     0.0000   0.0000   0.0000   0.0000   0.0000   0.0000   0.0000   0.0000
     0.0000   0.0000   0.0000   0.0000   0.0000   0.0000   0.0000   0.0000

          k = 0.0000 0.1000 0.0000 (201189 PWs)   bands (ev):

   -51.4646 -51.4644 -51.4633 -51.4632 -51.4631 -51.4630 -51.4619 -51.4618
   -50.4619 -50.4616 -50.4569 -50.4568 -50.4567 -50.4566 -50.4553 -50.4552
   -50.4485 -50.4407 -50.4392 -50.4379 -50.4376 -50.4376 -50.4367 -50.4367
   -50.4363 -50.4362 -50.4362 -50.4354 -50.4353 -50.4353 -50.4318 -50.4265
    -7.2979  -6.9414  -6.3384  -5.5144  -5.3651  -5.0314  -4.8791  -4.8791
    -4.5604  -4.5604  -4.4887  -4.4278  -4.3873  -4.0766  -4.0494  -4.0494
    -3.9062  -3.5089  -3.4967  -3.4967  -3.4726  -3.4726  -3.3646  -3.1733
    -3.0523  -3.0523  -2.2735  -2.2735  -2.1227  -1.3735  -1.3735  -1.1386
    -0.9463  -0.8366  -0.8365  -0.6427  -0.5246  -0.5246  -0.5021  -0.5021

     occupation numbers 
     1.0000   1.0000   1.0000   1.0000   1.0000   1.0000   1.0000   1.0000
     1.0000   1.0000   1.0000   1.0000   1.0000   1.0000   1.0000   1.0000
     1.0000   1.0000   1.0000   1.0000   1.0000   1.0000   1.0000   1.0000
     1.0000   1.0000   1.0000   1.0000   1.0000   1.0000   1.0000   1.0000
     1.0000   1.0000   1.0000   1.0000   1.0000   1.0000   1.0000   1.0000
     1.0000   1.0000   1.0000   1.0000   1.0001   1.0775   1.0455   1.0455
     0.4118   0.0000   0.0000   0.0000   0.0000   0.0000   0.0000   0.0000
     0.0000   0.0000   0.0000   0.0000   0.0000   0.0000   0.0000   0.0000
     0.0000   0.0000   0.0000   0.0000   0.0000   0.0000   0.0000   0.0000

          k = 0.0000 0.2000 0.0000 (201103 PWs)   bands (ev):

   -51.4645 -51.4643 -51.4634 -51.4632 -51.4631 -51.4629 -51.4620 -51.4619
   -50.4616 -50.4612 -50.4573 -50.4572 -50.4566 -50.4565 -50.4554 -50.4553
   -50.4481 -50.4409 -50.4406 -50.4385 -50.4375 -50.4375 -50.4366 -50.4366
   -50.4363 -50.4363 -50.4355 -50.4354 -50.4354 -50.4337 -50.4320 -50.4268
    -7.2263  -6.8698  -6.2666  -5.7792  -5.4442  -5.4354  -4.8597  -4.8109
    -4.8109  -4.4878  -4.4878  -4.3613  -4.1641  -3.9680  -3.9680  -3.8068
    -3.6714  -3.6714  -3.6158  -3.3849  -3.3849  -3.3063  -3.2517  -3.2517
    -3.1642  -3.1115  -2.5317  -2.5317  -2.0603  -1.7345  -1.7345  -1.0749
    -0.8223  -0.8084  -0.8083  -0.7167  -0.4608  -0.4608  -0.2069  -0.2069

     occupation numbers 
     1.0000   1.0000   1.0000   1.0000   1.0000   1.0000   1.0000   1.0000
     1.0000   1.0000   1.0000   1.0000   1.0000   1.0000   1.0000   1.0000
     1.0000   1.0000   1.0000   1.0000   1.0000   1.0000   1.0000   1.0000
     1.0000   1.0000   1.0000   1.0000   1.0000   1.0000   1.0000   1.0000
     1.0000   1.0000   1.0000   1.0000   1.0000   1.0000   1.0000   1.0000
     1.0000   1.0000   1.0000   1.0003   1.0492   0.7464   0.7463   0.0751
     0.0015   0.0015   0.0002   0.0000   0.0000   0.0000   0.0000   0.0000
     0.0000   0.0000   0.0000   0.0000   0.0000   0.0000   0.0000   0.0000
     0.0000   0.0000   0.0000   0.0000   0.0000   0.0000   0.0000   0.0000

          k = 0.0000 0.3000 0.0000 (201139 PWs)   bands (ev):

   -51.4643 -51.4642 -51.4635 -51.4634 -51.4630 -51.4628 -51.4622 -51.4620
   -50.4610 -50.4607 -50.4578 -50.4578 -50.4564 -50.4564 -50.4556 -50.4555
   -50.4475 -50.4426 -50.4404 -50.4391 -50.4373 -50.4373 -50.4365 -50.4364
   -50.4364 -50.4364 -50.4356 -50.4356 -50.4347 -50.4323 -50.4321 -50.4274
    -7.1067  -6.7504  -6.1471  -6.1434  -5.7938  -5.3280  -5.2035  -4.6987
    -4.6987  -4.4477  -4.3682  -4.3682  -4.2525  -3.8980  -3.8980  -3.8336
    -3.8336  -3.5655  -3.5037  -3.5037  -3.2391  -3.2391  -3.2021  -3.0148
    -2.9307  -2.8643  -2.8388  -2.8388  -2.1154  -2.1154  -1.9734  -1.0138
    -0.7946  -0.7639  -0.7638  -0.5909  -0.5066  -0.5065  -0.1587  -0.0971

     occupation numbers 
     1.0000   1.0000   1.0000   1.0000   1.0000   1.0000   1.0000   1.0000
     1.0000   1.0000   1.0000   1.0000   1.0000   1.0000   1.0000   1.0000
     1.0000   1.0000   1.0000   1.0000   1.0000   1.0000   1.0000   1.0000
     1.0000   1.0000   1.0000   1.0000   1.0000   1.0000   1.0000   1.0000
     1.0000   1.0000   1.0000   1.0000   1.0000   1.0000   1.0000   1.0000
     1.0000   1.0000   1.0002   1.0002   1.0084   0.3709   0.3709   0.1308
     0.1308   0.0000   0.0000   0.0000   0.0000   0.0000   0.0000   0.0000
     0.0000   0.0000   0.0000   0.0000   0.0000   0.0000   0.0000   0.0000
     0.0000   0.0000   0.0000   0.0000   0.0000   0.0000   0.0000   0.0000

          k = 0.0000 0.4000 0.0000 (201125 PWs)   bands (ev):

   -51.4642 -51.4640 -51.4637 -51.4636 -51.4628 -51.4626 -51.4624 -51.4622
   -50.4602 -50.4600 -50.4586 -50.4585 -50.4562 -50.4561 -50.4558 -50.4557
   -50.4466 -50.4441 -50.4402 -50.4395 -50.4371 -50.4371 -50.4367 -50.4366
   -50.4362 -50.4362 -50.4358 -50.4358 -50.4340 -50.4328 -50.4306 -50.4283
    -6.9391  -6.5832  -6.4578  -6.1048  -5.9802  -5.5070  -5.1670  -4.7210
    -4.5450  -4.5449  -4.2039  -4.2039  -4.1338  -4.1338  -4.1056  -3.7613
    -3.7613  -3.7358  -3.6482  -3.6482  -3.1416  -3.1416  -3.0364  -3.0364
    -2.8968  -2.7589  -2.5264  -2.4691  -2.4691  -2.4119  -1.9129  -1.2227
    -0.7063  -0.7062  -0.6629  -0.6628  -0.5713  -0.5712  -0.4696  -0.3589

     occupation numbers 
     1.0000   1.0000   1.0000   1.0000   1.0000   1.0000   1.0000   1.0000
     1.0000   1.0000   1.0000   1.0000   1.0000   1.0000   1.0000   1.0000
     1.0000   1.0000   1.0000   1.0000   1.0000   1.0000   1.0000   1.0000
     1.0000   1.0000   1.0000   1.0000   1.0000   1.0000   1.0000   1.0000
     1.0000   1.0000   1.0000   1.0000   1.0000   1.0000   1.0000   1.0000
     1.0000   1.0000   1.0253   1.0253   1.0696   1.0696   1.0823   0.0248
     0.0248   0.0121   0.0006   0.0006   0.0000   0.0000   0.0000   0.0000
     0.0000   0.0000   0.0000   0.0000   0.0000   0.0000   0.0000   0.0000
     0.0000   0.0000   0.0000   0.0000   0.0000   0.0000   0.0000   0.0000

          k = 0.0000-0.5000 0.0000 (201080 PWs)   bands (ev):

   -51.4639 -51.4639 -51.4638 -51.4638 -51.4626 -51.4626 -51.4624 -51.4624
   -50.4594 -50.4594 -50.4593 -50.4593 -50.4560 -50.4560 -50.4559 -50.4559
   -50.4454 -50.4454 -50.4399 -50.4399 -50.4369 -50.4369 -50.4369 -50.4369
   -50.4360 -50.4360 -50.4360 -50.4360 -50.4333 -50.4333 -50.4294 -50.4293
    -6.7229  -6.7229  -6.3680  -6.3680  -5.7665  -5.7665  -4.9634  -4.9634
    -4.3541  -4.3541  -4.3541  -4.3541  -3.9992  -3.9992  -3.9992  -3.9992
    -3.9281  -3.9281  -3.4154  -3.4154  -3.4154  -3.4154  -2.7881  -2.7881
    -2.7785  -2.7785  -2.7785  -2.7785  -2.0218  -2.0218  -1.8485  -1.8485
    -0.6638  -0.6638  -0.6403  -0.6403  -0.6402  -0.6402  -0.4912  -0.4911

     occupation numbers 
     1.0000   1.0000   1.0000   1.0000   1.0000   1.0000   1.0000   1.0000
     1.0000   1.0000   1.0000   1.0000   1.0000   1.0000   1.0000   1.0000
     1.0000   1.0000   1.0000   1.0000   1.0000   1.0000   1.0000   1.0000
     1.0000   1.0000   1.0000   1.0000   1.0000   1.0000   1.0000   1.0000
     1.0000   1.0000   1.0000   1.0000   1.0000   1.0000   1.0000   1.0000
     1.0003   1.0003   1.0003   1.0003   0.8949   0.8949   0.8949   0.8948
     0.5284   0.5284   0.0000   0.0000   0.0000   0.0000   0.0000   0.0000
     0.0000   0.0000   0.0000   0.0000   0.0000   0.0000   0.0000   0.0000
     0.0000   0.0000   0.0000   0.0000   0.0000   0.0000   0.0000   0.0000

          k = 0.1000 0.1000 0.0000 (201192 PWs)   bands (ev):

   -51.4646 -51.4644 -51.4632 -51.4632 -51.4631 -51.4631 -51.4620 -51.4618
   -50.4618 -50.4615 -50.4568 -50.4568 -50.4567 -50.4567 -50.4553 -50.4553
   -50.4484 -50.4407 -50.4391 -50.4391 -50.4379 -50.4379 -50.4364 -50.4362
   -50.4362 -50.4361 -50.4354 -50.4354 -50.4353 -50.4352 -50.4319 -50.4266
    -7.2740  -6.9175  -6.3144  -5.4909  -5.3419  -5.3419  -5.0072  -5.0072
    -4.4624  -4.4624  -4.4053  -4.3649  -4.3649  -4.0521  -4.0521  -3.8772
    -3.8772  -3.7296  -3.4817  -3.4817  -3.3664  -3.3342  -3.3342  -3.3071
    -3.1519  -2.9107  -2.5775  -2.1017  -2.1004  -1.7370  -1.1246  -1.1147
    -0.9386  -0.9386  -0.9195  -0.6300  -0.6300  -0.6236  -0.5177  -0.5117

     occupation numbers 
     1.0000   1.0000   1.0000   1.0000   1.0000   1.0000   1.0000   1.0000
     1.0000   1.0000   1.0000   1.0000   1.0000   1.0000   1.0000   1.0000
     1.0000   1.0000   1.0000   1.0000   1.0000   1.0000   1.0000   1.0000
     1.0000   1.0000   1.0000   1.0000   1.0000   1.0000   1.0000   1.0000
     1.0000   1.0000   1.0000   1.0000   1.0000   1.0000   1.0000   1.0000
     1.0000   1.0000   1.0000   1.0002   1.0002   1.0502   1.0502   0.2770
     0.2770   0.0101   0.0000   0.0000   0.0000   0.0000   0.0000   0.0000
     0.0000   0.0000   0.0000   0.0000   0.0000   0.0000   0.0000   0.0000
     0.0000   0.0000   0.0000   0.0000   0.0000   0.0000   0.0000   0.0000

          k = 0.1000 0.2000 0.0000 (201095 PWs)   bands (ev):

   -51.4645 -51.4643 -51.4633 -51.4632 -51.4631 -51.4630 -51.4621 -51.4619
   -50.4614 -50.4611 -50.4572 -50.4571 -50.4567 -50.4566 -50.4555 -50.4554
   -50.4480 -50.4408 -50.4406 -50.4389 -50.4385 -50.4377 -50.4367 -50.4362
   -50.4362 -50.4355 -50.4354 -50.4353 -50.4352 -50.4337 -50.4321 -50.4269
    -7.2024  -6.8459  -6.2425  -5.7558  -5.4205  -5.4112  -5.2725  -4.9349
    -4.8341  -4.3838  -4.3384  -4.2984  -4.1366  -4.0089  -3.9793  -3.7907
    -3.7851  -3.6074  -3.5890  -3.4004  -3.3747  -3.2785  -3.2430  -3.1352
    -3.0894  -2.9465  -2.9051  -2.1979  -2.0797  -2.0369  -1.4574  -1.0492
    -0.9166  -0.8832  -0.8142  -0.7080  -0.5930  -0.5506  -0.4207  -0.4089

     occupation numbers 
     1.0000   1.0000   1.0000   1.0000   1.0000   1.0000   1.0000   1.0000
     1.0000   1.0000   1.0000   1.0000   1.0000   1.0000   1.0000   1.0000
     1.0000   1.0000   1.0000   1.0000   1.0000   1.0000   1.0000   1.0000
     1.0000   1.0000   1.0000   1.0000   1.0000   1.0000   1.0000   1.0000
     1.0000   1.0000   1.0000   1.0000   1.0000   1.0000   1.0000   1.0000
     1.0000   1.0001   1.0006   1.0023   1.0679   0.9333   0.8039   0.0520
     0.0455   0.0001   0.0001   0.0000   0.0000   0.0000   0.0000   0.0000
     0.0000   0.0000   0.0000   0.0000   0.0000   0.0000   0.0000   0.0000
     0.0000   0.0000   0.0000   0.0000   0.0000   0.0000   0.0000   0.0000

          k = 0.1000 0.3000 0.0000 (201150 PWs)   bands (ev):

   -51.4643 -51.4641 -51.4635 -51.4633 -51.4630 -51.4628 -51.4622 -51.4620
   -50.4609 -50.4606 -50.4578 -50.4577 -50.4566 -50.4565 -50.4556 -50.4555
   -50.4473 -50.4425 -50.4404 -50.4390 -50.4387 -50.4375 -50.4371 -50.4365
   -50.4360 -50.4355 -50.4353 -50.4351 -50.4347 -50.4324 -50.4321 -50.4275
    -7.0829  -6.7265  -6.1229  -6.1197  -5.7696  -5.3041  -5.1783  -5.1578
    -4.8151  -4.4213  -4.2939  -4.2536  -4.2291  -4.1898  -3.9097  -3.8603
    -3.6470  -3.5368  -3.4970  -3.2665  -3.2629  -3.1811  -3.0911  -3.0765
    -2.9915  -2.9058  -2.8339  -2.5455  -2.3254  -1.9477  -1.8902  -0.9842
    -0.8833  -0.8046  -0.7895  -0.5780  -0.5346  -0.4057  -0.1589  -0.1446

     occupation numbers 
     1.0000   1.0000   1.0000   1.0000   1.0000   1.0000   1.0000   1.0000
     1.0000   1.0000   1.0000   1.0000   1.0000   1.0000   1.0000   1.0000
     1.0000   1.0000   1.0000   1.0000   1.0000   1.0000   1.0000   1.0000
     1.0000   1.0000   1.0000   1.0000   1.0000   1.0000   1.0000   1.0000
     1.0000   1.0000   1.0000   1.0000   1.0000   1.0000   1.0000   1.0000
     1.0000   1.0000   1.0026   1.0082   1.0148   1.0328   0.4301   0.2115
     0.0006   0.0000   0.0000   0.0000   0.0000   0.0000   0.0000   0.0000
     0.0000   0.0000   0.0000   0.0000   0.0000   0.0000   0.0000   0.0000
     0.0000   0.0000   0.0000   0.0000   0.0000   0.0000   0.0000   0.0000

          k = 0.1000 0.4000 0.0000 (201132 PWs)   bands (ev):

   -51.4641 -51.4640 -51.4637 -51.4635 -51.4628 -51.4626 -51.4624 -51.4622
   -50.4601 -50.4599 -50.4585 -50.4584 -50.4563 -50.4562 -50.4558 -50.4558
   -50.4464 -50.4440 -50.4402 -50.4395 -50.4383 -50.4375 -50.4373 -50.4367
   -50.4359 -50.4356 -50.4352 -50.4351 -50.4340 -50.4328 -50.4307 -50.4284
    -6.9152  -6.5592  -6.4340  -6.0807  -5.9559  -5.4822  -5.1427  -4.9991
    -4.6955  -4.6494  -4.5615  -4.1914  -4.0813  -4.0733  -4.0436  -3.7089
    -3.6990  -3.6765  -3.5728  -3.4475  -3.2864  -3.0829  -2.8908  -2.8789
    -2.8717  -2.7289  -2.5948  -2.5064  -2.3845  -2.2764  -1.8837  -1.1969
    -0.8445  -0.7885  -0.6554  -0.6550  -0.4630  -0.4611  -0.3494  -0.3439

     occupation numbers 
     1.0000   1.0000   1.0000   1.0000   1.0000   1.0000   1.0000   1.0000
     1.0000   1.0000   1.0000   1.0000   1.0000   1.0000   1.0000   1.0000
     1.0000   1.0000   1.0000   1.0000   1.0000   1.0000   1.0000   1.0000
     1.0000   1.0000   1.0000   1.0000   1.0000   1.0000   1.0000   1.0000
     1.0000   1.0000   1.0000   1.0000   1.0000   1.0000   1.0000   1.0000
     1.0000   1.0000   1.0000   1.0319   1.0801   1.0752   1.0344   0.0053
     0.0038   0.0018   0.0000   0.0000   0.0000   0.0000   0.0000   0.0000
     0.0000   0.0000   0.0000   0.0000   0.0000   0.0000   0.0000   0.0000
     0.0000   0.0000   0.0000   0.0000   0.0000   0.0000   0.0000   0.0000

          k = 0.1000-0.5000 0.0000 (201002 PWs)   bands (ev):

   -51.4639 -51.4639 -51.4637 -51.4637 -51.4626 -51.4626 -51.4624 -51.4624
   -50.4593 -50.4593 -50.4592 -50.4592 -50.4561 -50.4561 -50.4560 -50.4560
   -50.4453 -50.4453 -50.4399 -50.4398 -50.4379 -50.4379 -50.4370 -50.4370
   -50.4357 -50.4357 -50.4352 -50.4352 -50.4334 -50.4334 -50.4294 -50.4294
    -6.6991  -6.6991  -6.3439  -6.3439  -5.7420  -5.7419  -4.9385  -4.9385
    -4.7990  -4.7990  -4.4402  -4.4402  -3.9028  -3.9028  -3.8676  -3.8676
    -3.8451  -3.8451  -3.5030  -3.5030  -3.1942  -3.1941  -2.8553  -2.8553
    -2.7605  -2.7605  -2.6069  -2.6069  -1.9910  -1.9910  -1.8287  -1.8287
    -0.8085  -0.8085  -0.6615  -0.6615  -0.4744  -0.4744  -0.3854  -0.3854

     occupation numbers 
     1.0000   1.0000   1.0000   1.0000   1.0000   1.0000   1.0000   1.0000
     1.0000   1.0000   1.0000   1.0000   1.0000   1.0000   1.0000   1.0000
     1.0000   1.0000   1.0000   1.0000   1.0000   1.0000   1.0000   1.0000
     1.0000   1.0000   1.0000   1.0000   1.0000   1.0000   1.0000   1.0000
     1.0000   1.0000   1.0000   1.0000   1.0000   1.0000   1.0000   1.0000
     1.0000   1.0000   1.0000   1.0000   0.3946   0.3946   0.2386   0.2386
     0.1623   0.1622   0.0000   0.0000   0.0000   0.0000   0.0000   0.0000
     0.0000   0.0000   0.0000   0.0000   0.0000   0.0000   0.0000   0.0000
     0.0000   0.0000   0.0000   0.0000   0.0000   0.0000   0.0000   0.0000

          k = 0.2000 0.2000 0.0000 (201180 PWs)   bands (ev):

   -51.4644 -51.4642 -51.4632 -51.4632 -51.4631 -51.4631 -51.4622 -51.4620
   -50.4611 -50.4608 -50.4571 -50.4571 -50.4570 -50.4570 -50.4556 -50.4555
   -50.4476 -50.4406 -50.4406 -50.4405 -50.4383 -50.4383 -50.4373 -50.4365
   -50.4354 -50.4354 -50.4353 -50.4348 -50.4337 -50.4337 -50.4323 -50.4273
    -7.1308  -6.7742  -6.1704  -5.6855  -5.6855  -5.3498  -5.3389  -5.3389
    -4.7573  -4.7573  -4.3476  -4.2706  -4.0544  -4.0544  -3.9597  -3.7211
    -3.7211  -3.5096  -3.5096  -3.2960  -3.1953  -3.1953  -3.1795  -3.0484
    -3.0484  -3.0249  -2.7241  -2.5005  -1.9697  -1.9155  -1.5913  -0.9772
    -0.9390  -0.8423  -0.7916  -0.7916  -0.6850  -0.6850  -0.5587  -0.5283

     occupation numbers 
     1.0000   1.0000   1.0000   1.0000   1.0000   1.0000   1.0000   1.0000
     1.0000   1.0000   1.0000   1.0000   1.0000   1.0000   1.0000   1.0000
     1.0000   1.0000   1.0000   1.0000   1.0000   1.0000   1.0000   1.0000
     1.0000   1.0000   1.0000   1.0000   1.0000   1.0000   1.0000   1.0000
     1.0000   1.0000   1.0000   1.0000   1.0000   1.0000   1.0000   1.0000
     1.0000   1.0000   1.0004   1.0052   1.0538   1.0538   0.7023   0.0078
     0.0078   0.0000   0.0000   0.0000   0.0000   0.0000   0.0000   0.0000
     0.0000   0.0000   0.0000   0.0000   0.0000   0.0000   0.0000   0.0000
     0.0000   0.0000   0.0000   0.0000   0.0000   0.0000   0.0000   0.0000

          k = 0.2000 0.3000 0.0000 (201109 PWs)   bands (ev):

   -51.4642 -51.4640 -51.4634 -51.4632 -51.4631 -51.4629 -51.4623 -51.4621
   -50.4605 -50.4603 -50.4576 -50.4575 -50.4569 -50.4568 -50.4558 -50.4557
   -50.4470 -50.4422 -50.4403 -50.4403 -50.4389 -50.4381 -50.4379 -50.4368
   -50.4354 -50.4353 -50.4347 -50.4345 -50.4338 -50.4325 -50.4322 -50.4279
    -7.0113  -6.6547  -6.0504  -6.0489  -5.6974  -5.5690  -5.2325  -5.2189
    -5.1029  -4.6659  -4.6301  -4.3424  -4.2889  -4.1595  -3.9182  -3.6451
    -3.6183  -3.4507  -3.3808  -3.1324  -3.1200  -3.0569  -2.9233  -2.9050
    -2.8609  -2.8325  -2.7425  -2.6949  -1.9616  -1.9493  -1.8732  -0.8969
    -0.8865  -0.8091  -0.7791  -0.7597  -0.6576  -0.5425  -0.4971  -0.3920

     occupation numbers 
     1.0000   1.0000   1.0000   1.0000   1.0000   1.0000   1.0000   1.0000
     1.0000   1.0000   1.0000   1.0000   1.0000   1.0000   1.0000   1.0000
     1.0000   1.0000   1.0000   1.0000   1.0000   1.0000   1.0000   1.0000
     1.0000   1.0000   1.0000   1.0000   1.0000   1.0000   1.0000   1.0000
     1.0000   1.0000   1.0000   1.0000   1.0000   1.0000   1.0000   1.0000
     1.0000   1.0000   1.0000   1.0005   1.0031   1.0524   0.4745   0.0006
     0.0002   0.0000   0.0000   0.0000   0.0000   0.0000   0.0000   0.0000
     0.0000   0.0000   0.0000   0.0000   0.0000   0.0000   0.0000   0.0000
     0.0000   0.0000   0.0000   0.0000   0.0000   0.0000   0.0000   0.0000

          k = 0.2000 0.4000 0.0000 (201067 PWs)   bands (ev):

   -51.4640 -51.4639 -51.4636 -51.4634 -51.4629 -51.4627 -51.4625 -51.4623
   -50.4598 -50.4597 -50.4583 -50.4582 -50.4566 -50.4565 -50.4560 -50.4560
   -50.4461 -50.4437 -50.4400 -50.4398 -50.4393 -50.4386 -50.4378 -50.4371
   -50.4353 -50.4353 -50.4342 -50.4341 -50.4339 -50.4329 -50.4308 -50.4286
    -6.8437  -6.4872  -6.3628  -6.0085  -5.8829  -5.4077  -5.4069  -5.0699
    -5.0521  -4.9524  -4.6192  -4.5842  -4.4532  -4.0092  -3.9578  -3.7296
    -3.6285  -3.4842  -3.2342  -3.2099  -3.1644  -2.8635  -2.8196  -2.7977
    -2.7078  -2.6393  -2.4494  -2.3131  -2.3037  -2.1899  -1.7972  -1.1258
    -0.7672  -0.7304  -0.7280  -0.6444  -0.6410  -0.6402  -0.4616  -0.3449

     occupation numbers 
     1.0000   1.0000   1.0000   1.0000   1.0000   1.0000   1.0000   1.0000
     1.0000   1.0000   1.0000   1.0000   1.0000   1.0000   1.0000   1.0000
     1.0000   1.0000   1.0000   1.0000   1.0000   1.0000   1.0000   1.0000
     1.0000   1.0000   1.0000   1.0000   1.0000   1.0000   1.0000   1.0000
     1.0000   1.0000   1.0000   1.0000   1.0000   1.0000   1.0000   1.0000
     1.0000   1.0000   1.0000   1.0000   1.0000   0.9345   0.6920   0.0101
     0.0003   0.0000   0.0000   0.0000   0.0000   0.0000   0.0000   0.0000
     0.0000   0.0000   0.0000   0.0000   0.0000   0.0000   0.0000   0.0000
     0.0000   0.0000   0.0000   0.0000   0.0000   0.0000   0.0000   0.0000

          k = 0.2000-0.5000 0.0000 (201048 PWs)   bands (ev):

   -51.4638 -51.4638 -51.4636 -51.4636 -51.4627 -51.4627 -51.4625 -51.4625
   -50.4591 -50.4591 -50.4590 -50.4589 -50.4563 -50.4563 -50.4562 -50.4562
   -50.4450 -50.4450 -50.4397 -50.4397 -50.4392 -50.4392 -50.4375 -50.4375
   -50.4353 -50.4353 -50.4340 -50.4340 -50.4335 -50.4335 -50.4296 -50.4296
    -6.6276  -6.6276  -6.2718  -6.2718  -5.6683  -5.6683  -5.2006  -5.2006
    -4.8642  -4.8642  -4.8398  -4.8398  -4.2284  -4.2284  -3.8271  -3.8271
    -3.4920  -3.4920  -3.3319  -3.3319  -3.0122  -3.0122  -2.6784  -2.6784
    -2.6153  -2.6153  -2.4635  -2.4634  -1.8987  -1.8987  -1.7748  -1.7748
    -0.7111  -0.7111  -0.6734  -0.6734  -0.6702  -0.6702  -0.4318  -0.4317

     occupation numbers 
     1.0000   1.0000   1.0000   1.0000   1.0000   1.0000   1.0000   1.0000
     1.0000   1.0000   1.0000   1.0000   1.0000   1.0000   1.0000   1.0000
     1.0000   1.0000   1.0000   1.0000   1.0000   1.0000   1.0000   1.0000
     1.0000   1.0000   1.0000   1.0000   1.0000   1.0000   1.0000   1.0000
     1.0000   1.0000   1.0000   1.0000   1.0000   1.0000   1.0000   1.0000
     1.0000   1.0000   1.0000   1.0000   1.0151   1.0151   0.1151   0.1151
     0.0000   0.0000   0.0000   0.0000   0.0000   0.0000   0.0000   0.0000
     0.0000   0.0000   0.0000   0.0000   0.0000   0.0000   0.0000   0.0000
     0.0000   0.0000   0.0000   0.0000   0.0000   0.0000   0.0000   0.0000

          k = 0.3000 0.3000 0.0000 (201060 PWs)   bands (ev):

   -51.4641 -51.4639 -51.4632 -51.4632 -51.4631 -51.4631 -51.4625 -51.4623
   -50.4600 -50.4598 -50.4574 -50.4574 -50.4573 -50.4573 -50.4560 -50.4560
   -50.4463 -50.4418 -50.4418 -50.4401 -50.4388 -50.4386 -50.4386 -50.4372
   -50.4351 -50.4347 -50.4347 -50.4339 -50.4328 -50.4324 -50.4324 -50.4284
    -6.8918  -6.5350  -5.9311  -5.9311  -5.9298  -5.5772  -5.5772  -5.1138
    -5.0036  -4.9776  -4.9776  -4.6327  -4.2115  -4.2115  -4.0455  -3.9985
    -3.3081  -3.3081  -3.2080  -3.0251  -3.0251  -2.8686  -2.8151  -2.7154
    -2.7154  -2.5904  -2.5904  -2.4135  -2.2450  -1.7615  -1.6055  -1.2793
    -0.7793  -0.7793  -0.7679  -0.6965  -0.6303  -0.4956  -0.4956  -0.4792

     occupation numbers 
     1.0000   1.0000   1.0000   1.0000   1.0000   1.0000   1.0000   1.0000
     1.0000   1.0000   1.0000   1.0000   1.0000   1.0000   1.0000   1.0000
     1.0000   1.0000   1.0000   1.0000   1.0000   1.0000   1.0000   1.0000
     1.0000   1.0000   1.0000   1.0000   1.0000   1.0000   1.0000   1.0000
     1.0000   1.0000   1.0000   1.0000   1.0000   1.0000   1.0000   1.0000
     1.0000   1.0000   1.0000   1.0000   1.0217   1.0217   1.0383   0.8920
     0.0000   0.0000   0.0000   0.0000   0.0000   0.0000   0.0000   0.0000
     0.0000   0.0000   0.0000   0.0000   0.0000   0.0000   0.0000   0.0000
     0.0000   0.0000   0.0000   0.0000   0.0000   0.0000   0.0000   0.0000

          k = 0.3000 0.4000 0.0000 (200978 PWs)   bands (ev):

   -51.4639 -51.4637 -51.4634 -51.4633 -51.4631 -51.4629 -51.4626 -51.4625
   -50.4594 -50.4593 -50.4580 -50.4579 -50.4571 -50.4570 -50.4564 -50.4563
   -50.4455 -50.4432 -50.4412 -50.4398 -50.4397 -50.4391 -50.4383 -50.4376
   -50.4349 -50.4348 -50.4341 -50.4334 -50.4332 -50.4326 -50.4311 -50.4291
    -6.7243  -6.3673  -6.2442  -5.8883  -5.7668  -5.7614  -5.4096  -5.3015
    -5.2840  -4.9493  -4.9358  -4.8031  -4.4927  -4.3116  -4.0300  -3.8908
    -3.5240  -3.4959  -3.1108  -2.9106  -2.7674  -2.6790  -2.5696  -2.5663
    -2.4928  -2.3779  -2.3647  -2.3234  -2.1751  -1.7861  -1.6583  -1.1563
    -1.0520  -0.8193  -0.6708  -0.6501  -0.6456  -0.5205  -0.4760  -0.4621

     occupation numbers 
     1.0000   1.0000   1.0000   1.0000   1.0000   1.0000   1.0000   1.0000
     1.0000   1.0000   1.0000   1.0000   1.0000   1.0000   1.0000   1.0000
     1.0000   1.0000   1.0000   1.0000   1.0000   1.0000   1.0000   1.0000
     1.0000   1.0000   1.0000   1.0000   1.0000   1.0000   1.0000   1.0000
     1.0000   1.0000   1.0000   1.0000   1.0000   1.0000   1.0000   1.0000
     1.0000   1.0000   1.0000   1.0000   1.0000   1.0015   1.0020   0.3369
     0.0000   0.0000   0.0000   0.0000   0.0000   0.0000   0.0000   0.0000
     0.0000   0.0000   0.0000   0.0000   0.0000   0.0000   0.0000   0.0000
     0.0000   0.0000   0.0000   0.0000   0.0000   0.0000   0.0000   0.0000

          k = 0.3000-0.5000 0.0000 (201006 PWs)   bands (ev):

   -51.4637 -51.4637 -51.4635 -51.4635 -51.4629 -51.4629 -51.4627 -51.4627
   -50.4587 -50.4587 -50.4586 -50.4586 -50.4567 -50.4567 -50.4566 -50.4566
   -50.4444 -50.4444 -50.4405 -50.4405 -50.4395 -50.4395 -50.4380 -50.4380
   -50.4348 -50.4348 -50.4336 -50.4336 -50.4330 -50.4330 -50.4300 -50.4300
    -6.5086  -6.5086  -6.1518  -6.1518  -5.5565  -5.5565  -5.5458  -5.5458
    -5.1954  -5.1954  -4.7411  -4.7411  -4.5806  -4.5806  -3.7998  -3.7998
    -3.7027  -3.7027  -2.8620  -2.8620  -2.8060  -2.8060  -2.5445  -2.5445
    -2.4133  -2.4133  -2.1067  -2.1067  -1.7457  -1.7457  -1.7094  -1.7093
    -0.9377  -0.9377  -0.7436  -0.7436  -0.5148  -0.5148  -0.3931  -0.3931

     occupation numbers 
     1.0000   1.0000   1.0000   1.0000   1.0000   1.0000   1.0000   1.0000
     1.0000   1.0000   1.0000   1.0000   1.0000   1.0000   1.0000   1.0000
     1.0000   1.0000   1.0000   1.0000   1.0000   1.0000   1.0000   1.0000
     1.0000   1.0000   1.0000   1.0000   1.0000   1.0000   1.0000   1.0000
     1.0000   1.0000   1.0000   1.0000   1.0000   1.0000   1.0000   1.0000
     1.0000   1.0000   1.0000   1.0000   1.0000   1.0000   0.0642   0.0642
     0.0043   0.0043   0.0000   0.0000   0.0000   0.0000   0.0000   0.0000
     0.0000   0.0000   0.0000   0.0000   0.0000   0.0000   0.0000   0.0000
     0.0000   0.0000   0.0000   0.0000   0.0000   0.0000   0.0000   0.0000

          k = 0.4000 0.4000 0.0000 (200868 PWs)   bands (ev):

   -51.4637 -51.4635 -51.4633 -51.4633 -51.4631 -51.4631 -51.4628 -51.4627
   -50.4588 -50.4587 -50.4576 -50.4576 -50.4575 -50.4575 -50.4567 -50.4567
   -50.4447 -50.4425 -50.4425 -50.4407 -50.4396 -50.4388 -50.4388 -50.4380
   -50.4347 -50.4343 -50.4343 -50.4334 -50.4326 -50.4315 -50.4315 -50.4297
    -6.5571  -6.1995  -6.0784  -6.0784  -5.7204  -5.7204  -5.6064  -5.5919
    -5.2434  -5.1114  -5.1114  -4.7821  -4.6237  -4.3173  -4.3172  -3.8283
    -3.7297  -3.3137  -3.3137  -2.8266  -2.5259  -2.4344  -2.3220  -2.3220
    -2.2497  -2.2497  -2.0161  -2.0161  -1.9798  -1.7398  -1.4934  -1.2045
    -1.1729  -0.9158  -0.7519  -0.7380  -0.7380  -0.7167  -0.7167  -0.5418

     occupation numbers 
     1.0000   1.0000   1.0000   1.0000   1.0000   1.0000   1.0000   1.0000
     1.0000   1.0000   1.0000   1.0000   1.0000   1.0000   1.0000   1.0000
     1.0000   1.0000   1.0000   1.0000   1.0000   1.0000   1.0000   1.0000
     1.0000   1.0000   1.0000   1.0000   1.0000   1.0000   1.0000   1.0000
     1.0000   1.0000   1.0000   1.0000   1.0000   1.0000   1.0000   1.0000
     1.0000   1.0000   1.0000   1.0000   1.0000   1.0013   1.0013   0.1179
     0.0101   0.0000   0.0000   0.0000   0.0000   0.0000   0.0000   0.0000
     0.0000   0.0000   0.0000   0.0000   0.0000   0.0000   0.0000   0.0000
     0.0000   0.0000   0.0000   0.0000   0.0000   0.0000   0.0000   0.0000

          k = 0.4000-0.5000 0.0000 (200830 PWs)   bands (ev):

   -51.4635 -51.4635 -51.4633 -51.4633 -51.4630 -51.4630 -51.4629 -51.4629
   -50.4582 -50.4582 -50.4581 -50.4581 -50.4572 -50.4572 -50.4571 -50.4571
   -50.4437 -50.4437 -50.4417 -50.4417 -50.4392 -50.4392 -50.4384 -50.4384
   -50.4344 -50.4344 -50.4338 -50.4338 -50.4320 -50.4320 -50.4305 -50.4305
    -6.3419  -6.3419  -5.9838  -5.9838  -5.8657  -5.8657  -5.5052  -5.5052
    -5.3749  -5.3749  -4.8909  -4.8909  -4.5702  -4.5702  -4.0947  -4.0947
    -3.5326  -3.5326  -3.0870  -3.0870  -2.3659  -2.3659  -2.2889  -2.2889
    -2.0110  -2.0110  -1.8908  -1.8908  -1.6992  -1.6992  -1.5362  -1.5362
    -0.9627  -0.9626  -0.9017  -0.9016  -0.8970  -0.8970  -0.4196  -0.4196

     occupation numbers 
     1.0000   1.0000   1.0000   1.0000   1.0000   1.0000   1.0000   1.0000
     1.0000   1.0000   1.0000   1.0000   1.0000   1.0000   1.0000   1.0000
     1.0000   1.0000   1.0000   1.0000   1.0000   1.0000   1.0000   1.0000
     1.0000   1.0000   1.0000   1.0000   1.0000   1.0000   1.0000   1.0000
     1.0000   1.0000   1.0000   1.0000   1.0000   1.0000   1.0000   1.0000
     1.0000   1.0000   1.0000   1.0000   1.0000   1.0000   1.0833   1.0833
     0.0000   0.0000   0.0000   0.0000   0.0000   0.0000   0.0000   0.0000
     0.0000   0.0000   0.0000   0.0000   0.0000   0.0000   0.0000   0.0000
     0.0000   0.0000   0.0000   0.0000   0.0000   0.0000   0.0000   0.0000

          k =-0.5000-0.5000 0.0000 (200724 PWs)   bands (ev):

   -51.4633 -51.4633 -51.4633 -51.4633 -51.4631 -51.4631 -51.4631 -51.4631
   -50.4577 -50.4577 -50.4577 -50.4577 -50.4576 -50.4576 -50.4576 -50.4576
   -50.4427 -50.4427 -50.4427 -50.4427 -50.4389 -50.4388 -50.4388 -50.4388
   -50.4341 -50.4341 -50.4341 -50.4341 -50.4312 -50.4312 -50.4312 -50.4312
    -6.1275  -6.1275  -6.1275  -6.1275  -5.7682  -5.7682  -5.7682  -5.7682
    -5.1563  -5.1563  -5.1563  -5.1562  -4.3536  -4.3536  -4.3536  -4.3536
    -3.3230  -3.3230  -3.3230  -3.3230  -2.1636  -2.1636  -2.1636  -2.1635
    -1.8786  -1.8786  -1.8786  -1.8786  -1.4248  -1.4248  -1.4248  -1.4248
    -1.1964  -1.1964  -1.1964  -1.1964  -0.6192  -0.6192  -0.6192  -0.6192

     occupation numbers 
     1.0000   1.0000   1.0000   1.0000   1.0000   1.0000   1.0000   1.0000
     1.0000   1.0000   1.0000   1.0000   1.0000   1.0000   1.0000   1.0000
     1.0000   1.0000   1.0000   1.0000   1.0000   1.0000   1.0000   1.0000
     1.0000   1.0000   1.0000   1.0000   1.0000   1.0000   1.0000   1.0000
     1.0000   1.0000   1.0000   1.0000   1.0000   1.0000   1.0000   1.0000
     1.0000   1.0000   1.0000   1.0000   1.0003   1.0003   1.0003   1.0003
     0.0000   0.0000   0.0000   0.0000   0.0000   0.0000   0.0000   0.0000
     0.0000   0.0000   0.0000   0.0000   0.0000   0.0000   0.0000   0.0000
     0.0000   0.0000   0.0000   0.0000   0.0000   0.0000   0.0000   0.0000

     the Fermi energy is    -3.9040 ev

!    total energy              =    -481.31206834 Ry
     total all-electron energy =      -481.312328 Ry
     estimated scf accuracy    <       0.00000001 Ry

!    total charge of GC-SCF    =       1.94837469 e
     smearing contrib. (-TS)   =      -0.00022486 Ry
     internal energy E=F+TS    =    -481.31184348 Ry

     The total energy is F=E-TS. E is the sum of the following terms:
     one-electron contribution =   -6242.80217055 Ry
     hartree contribution      =    3064.87930922 Ry
     xc contribution           =    -113.91847634 Ry
     ewald contribution        =    2865.82427830 Ry
     one-center paw contrib.   =       2.82612760 Ry
      -> PAW hartree energy AE =       7.49400324 Ry
      -> PAW hartree energy PS =      -7.27127800 Ry
      -> PAW xc energy AE      =      -3.49741245 Ry
      -> PAW xc energy PS      =       3.36293199 Ry
      -> total E_H with PAW    =    3065.10203446 Ry
      -> total E_XC with PAW   =    -114.05295681 Ry
     pot.stat. contrib. (-muN) =      -0.55906411 Ry
     electrostatic embedding   =      -0.65347520 Ry
     cavitation energy         =       0.01930244 Ry
     electrolyte free energy   =      -0.01442551 Ry
     correction to one-el term =     -56.91324932 Ry

     WARNING: you are using the parabolic pbc correction;
              the potential shift above must be added to 
              band and Fermi energies.

     convergence has been achieved in  23 iterations
     The dielectric solvent contribution to forces
     atom    1 type  1   force =     0.00000000    0.00000000   -0.06487602
     atom    2 type  1   force =     0.00000034    0.00000034   -0.05529476
     atom    3 type  1   force =    -0.00000000   -0.00000000   -0.01316087
     atom    4 type  1   force =    -0.00000008   -0.00000008   -0.03897711
     atom    5 type  1   force =     0.00000000    0.00000000    0.03896151
     atom    6 type  1   force =     0.00000013    0.00000013    0.01314577
     atom    7 type  1   force =     0.00000000    0.00000000    0.05528312
     atom    8 type  1   force =     0.00000013    0.00000013    0.06486113
     atom    9 type  1   force =     0.00000000   -0.00000000   -0.06487563
     atom   10 type  1   force =     0.00000034   -0.00000035   -0.05529476
     atom   11 type  1   force =    -0.00000000    0.00000000   -0.01316110
     atom   12 type  1   force =    -0.00000008    0.00000008   -0.03897711
     atom   13 type  1   force =     0.00000000   -0.00000000    0.03896187
     atom   14 type  1   force =     0.00000013   -0.00000013    0.01314577
     atom   15 type  1   force =     0.00000000   -0.00000000    0.05528345
     atom   16 type  1   force =     0.00000013   -0.00000013    0.06486113
     atom   17 type  1   force =    -0.00000000    0.00000000   -0.06487563
     atom   18 type  1   force =    -0.00000035    0.00000034   -0.05529476
     atom   19 type  1   force =     0.00000000   -0.00000000   -0.01316110
     atom   20 type  1   force =     0.00000008   -0.00000008   -0.03897711
     atom   21 type  1   force =    -0.00000000    0.00000000    0.03896187
     atom   22 type  1   force =    -0.00000013    0.00000013    0.01314577
[...]
     atom   19 type  1   force =     0.00000000    0.00000000    0.00546539
     atom   20 type  1   force =    -0.00000006    0.00000006   -0.00395677
     atom   21 type  1   force =     0.00000000    0.00000000    0.00395631
     atom   22 type  1   force =    -0.00000010    0.00000010   -0.00546563
     atom   23 type  1   force =     0.00000000    0.00000000    0.08713706
     atom   24 type  1   force =     0.00000005   -0.00000005    0.00245439
     atom   25 type  1   force =     0.00000000    0.00000000   -0.00245441
     atom   26 type  1   force =    -0.00000016   -0.00000016   -0.08713607
     atom   27 type  1   force =     0.00000000    0.00000000    0.00546540
     atom   28 type  1   force =    -0.00000006   -0.00000006   -0.00395677
     atom   29 type  1   force =     0.00000000    0.00000000    0.00395660
     atom   30 type  1   force =    -0.00000010   -0.00000010   -0.00546563
     atom   31 type  1   force =     0.00000000    0.00000000    0.08713657
     atom   32 type  1   force =     0.00000005    0.00000005    0.00245439
     The ionic contribution  to forces
     atom    1 type  1   force =    -0.00000001   -0.00000001   -9.76572996
     atom    2 type  1   force =     0.00000143    0.00000143  -13.41170014
     atom    3 type  1   force =    -0.00000001   -0.00000001   -1.96830673
     atom    4 type  1   force =     0.00000138    0.00000138   -5.91586168
     atom    5 type  1   force =    -0.00000000   -0.00000000    5.91579140
     atom    6 type  1   force =     0.00000009    0.00000009    1.96831918
     atom    7 type  1   force =    -0.00000001   -0.00000001   13.41174357
     atom    8 type  1   force =     0.00000225    0.00000225    9.76572145
     atom    9 type  1   force =    -0.00000001    0.00000001   -9.76571881
     atom   10 type  1   force =     0.00000143   -0.00000143  -13.41170011
     atom   11 type  1   force =    -0.00000001    0.00000001   -1.96833282
     atom   12 type  1   force =     0.00000138   -0.00000137   -5.91586170
     atom   13 type  1   force =    -0.00000000   -0.00000000    5.91585714
     atom   14 type  1   force =     0.00000009   -0.00000009    1.96831917
     atom   15 type  1   force =    -0.00000001    0.00000001   13.41171692
     atom   16 type  1   force =     0.00000225   -0.00000225    9.76572148
     atom   17 type  1   force =     0.00000001   -0.00000001   -9.76571881
     atom   18 type  1   force =    -0.00000143    0.00000143  -13.41170011
     atom   19 type  1   force =     0.00000001   -0.00000001   -1.96833282
     atom   20 type  1   force =    -0.00000137    0.00000138   -5.91586170
     atom   21 type  1   force =    -0.00000000   -0.00000000    5.91585714
     atom   22 type  1   force =    -0.00000009    0.00000009    1.96831917
     atom   23 type  1   force =     0.00000001   -0.00000001   13.41171692
     atom   24 type  1   force =    -0.00000225    0.00000225    9.76572148
     atom   25 type  1   force =     0.00000001    0.00000001   -9.76570455
     atom   26 type  1   force =    -0.00000143   -0.00000143  -13.41170010
     atom   27 type  1   force =     0.00000001    0.00000001   -1.96836113
     atom   28 type  1   force =    -0.00000137   -0.00000137   -5.91586171
     atom   29 type  1   force =    -0.00000000   -0.00000000    5.91591963
     atom   30 type  1   force =    -0.00000009   -0.00000009    1.96831916
     atom   31 type  1   force =     0.00000001    0.00000001   13.41168758
     atom   32 type  1   force =    -0.00000225   -0.00000225    9.76572149
     The local contribution  to forces
     atom    1 type  1   force =     0.00000407    0.00000407    9.83368964
     atom    2 type  1   force =     0.00000304    0.00000304   13.55419434
     atom    3 type  1   force =     0.00000407    0.00000407    1.97634783
     atom    4 type  1   force =     0.00000329    0.00000329    5.95943856
     atom    5 type  1   force =     0.00000407    0.00000407   -5.95936589
     atom    6 type  1   force =     0.00000421    0.00000421   -1.97635855
     atom    7 type  1   force =     0.00000350    0.00000350  -13.55423510
     atom    8 type  1   force =     0.00000204    0.00000204   -9.83367921
     atom    9 type  1   force =     0.00000407    0.00000499    9.83367823
     atom   10 type  1   force =     0.00000304    0.00000639   13.55419315
     atom   11 type  1   force =     0.00000407    0.00000441    1.97637404
     atom   12 type  1   force =     0.00000329    0.00000610    5.95943917
     atom   13 type  1   force =     0.00000407    0.00000383   -5.95943254
     atom   14 type  1   force =     0.00000421    0.00000461   -1.97635855
     atom   15 type  1   force =     0.00000350    0.00000442  -13.55420914
     atom   16 type  1   force =     0.00000204    0.00000677   -9.83367981
     atom   17 type  1   force =     0.00000499    0.00000407    9.83367823
     atom   18 type  1   force =     0.00000639    0.00000304   13.55419315
     atom   19 type  1   force =     0.00000441    0.00000407    1.97637404
     atom   20 type  1   force =     0.00000610    0.00000329    5.95943917
     atom   21 type  1   force =     0.00000383    0.00000407   -5.95943254
     atom   22 type  1   force =     0.00000461    0.00000421   -1.97635855
     atom   23 type  1   force =     0.00000442    0.00000350  -13.55420914
     atom   24 type  1   force =     0.00000677    0.00000204   -9.83367981
     atom   25 type  1   force =     0.00000499    0.00000499    9.83366367
     atom   26 type  1   force =     0.00000639    0.00000639   13.55419255
     atom   27 type  1   force =     0.00000441    0.00000441    1.97640254
     atom   28 type  1   force =     0.00000610    0.00000610    5.95943917
     atom   29 type  1   force =     0.00000383    0.00000383   -5.95949574
     atom   30 type  1   force =     0.00000461    0.00000461   -1.97635855
     atom   31 type  1   force =     0.00000442    0.00000442  -13.55418053
     atom   32 type  1   force =     0.00000677    0.00000677   -9.83367981
     The core correction contribution to forces
     atom    1 type  1   force =     0.00000000    0.00000000    0.00000000
     atom    2 type  1   force =     0.00000000    0.00000000    0.00000000
     atom    3 type  1   force =     0.00000000    0.00000000    0.00000000
     atom    4 type  1   force =     0.00000000    0.00000000    0.00000000
     atom    5 type  1   force =     0.00000000    0.00000000    0.00000000
     atom    6 type  1   force =     0.00000000    0.00000000    0.00000000
     atom    7 type  1   force =     0.00000000    0.00000000    0.00000000
     atom    8 type  1   force =     0.00000000    0.00000000    0.00000000
     atom    9 type  1   force =     0.00000000    0.00000000    0.00000000
     atom   10 type  1   force =     0.00000000    0.00000000    0.00000000
     atom   11 type  1   force =     0.00000000    0.00000000    0.00000000
     atom   12 type  1   force =     0.00000000    0.00000000    0.00000000
     atom   13 type  1   force =     0.00000000    0.00000000    0.00000000
     atom   14 type  1   force =     0.00000000    0.00000000    0.00000000
     atom   15 type  1   force =     0.00000000    0.00000000    0.00000000
     atom   16 type  1   force =     0.00000000    0.00000000    0.00000000
     atom   17 type  1   force =     0.00000000    0.00000000    0.00000000
     atom   18 type  1   force =     0.00000000    0.00000000    0.00000000
     atom   19 type  1   force =     0.00000000    0.00000000    0.00000000
     atom   20 type  1   force =     0.00000000    0.00000000    0.00000000
     atom   21 type  1   force =     0.00000000    0.00000000    0.00000000
     atom   22 type  1   force =     0.00000000    0.00000000    0.00000000
     atom   23 type  1   force =     0.00000000    0.00000000    0.00000000
     atom   24 type  1   force =     0.00000000    0.00000000    0.00000000
     atom   25 type  1   force =     0.00000000    0.00000000    0.00000000
     atom   26 type  1   force =     0.00000000    0.00000000    0.00000000
     atom   27 type  1   force =     0.00000000    0.00000000    0.00000000
     atom   28 type  1   force =     0.00000000    0.00000000    0.00000000
     atom   29 type  1   force =     0.00000000    0.00000000    0.00000000
     atom   30 type  1   force =     0.00000000    0.00000000    0.00000000
     atom   31 type  1   force =     0.00000000    0.00000000    0.00000000
     atom   32 type  1   force =     0.00000000    0.00000000    0.00000000
     The Hubbard contrib.    to forces
     atom    1 type  1   force =     0.00000000    0.00000000    0.00000000
     atom    2 type  1   force =     0.00000000    0.00000000    0.00000000
     atom    3 type  1   force =     0.00000000    0.00000000    0.00000000
     atom    4 type  1   force =     0.00000000    0.00000000    0.00000000
     atom    5 type  1   force =     0.00000000    0.00000000    0.00000000
     atom    6 type  1   force =     0.00000000    0.00000000    0.00000000
     atom    7 type  1   force =     0.00000000    0.00000000    0.00000000
     atom    8 type  1   force =     0.00000000    0.00000000    0.00000000
     atom    9 type  1   force =     0.00000000    0.00000000    0.00000000
     atom   10 type  1   force =     0.00000000    0.00000000    0.00000000
     atom   11 type  1   force =     0.00000000    0.00000000    0.00000000
     atom   12 type  1   force =     0.00000000    0.00000000    0.00000000
     atom   13 type  1   force =     0.00000000    0.00000000    0.00000000
     atom   14 type  1   force =     0.00000000    0.00000000    0.00000000
     atom   15 type  1   force =     0.00000000    0.00000000    0.00000000
     atom   16 type  1   force =     0.00000000    0.00000000    0.00000000
     atom   17 type  1   force =     0.00000000    0.00000000    0.00000000
     atom   18 type  1   force =     0.00000000    0.00000000    0.00000000
     atom   19 type  1   force =     0.00000000    0.00000000    0.00000000
     atom   20 type  1   force =     0.00000000    0.00000000    0.00000000
     atom   21 type  1   force =     0.00000000    0.00000000    0.00000000
     atom   22 type  1   force =     0.00000000    0.00000000    0.00000000
     atom   23 type  1   force =     0.00000000    0.00000000    0.00000000
     atom   24 type  1   force =     0.00000000    0.00000000    0.00000000
     atom   25 type  1   force =     0.00000000    0.00000000    0.00000000
     atom   26 type  1   force =     0.00000000    0.00000000    0.00000000
     atom   27 type  1   force =     0.00000000    0.00000000    0.00000000
     atom   28 type  1   force =     0.00000000    0.00000000    0.00000000
     atom   29 type  1   force =     0.00000000    0.00000000    0.00000000
     atom   30 type  1   force =     0.00000000    0.00000000    0.00000000
     atom   31 type  1   force =     0.00000000    0.00000000    0.00000000
     atom   32 type  1   force =     0.00000000    0.00000000    0.00000000
     The SCF correction term to forces
     atom    1 type  1   force =     0.00000000   -0.00000000   -0.00000396
     atom    2 type  1   force =     0.00000000    0.00000000    0.00000335
     atom    3 type  1   force =     0.00000000   -0.00000000   -0.00000013
     atom    4 type  1   force =     0.00000000    0.00000000   -0.00000036
     atom    5 type  1   force =     0.00000000   -0.00000000    0.00000052
     atom    6 type  1   force =     0.00000000    0.00000000    0.00000013
     atom    7 type  1   force =    -0.00000000    0.00000000   -0.00000329
     atom    8 type  1   force =     0.00000000    0.00000000    0.00000430
     atom    9 type  1   force =     0.00000000   -0.00000000   -0.00000399
     atom   10 type  1   force =     0.00000000   -0.00000000    0.00000335
     atom   11 type  1   force =    -0.00000000    0.00000000   -0.00000014
     atom   12 type  1   force =     0.00000000   -0.00000000   -0.00000036
     atom   13 type  1   force =    -0.00000000    0.00000000    0.00000051
     atom   14 type  1   force =     0.00000000   -0.00000000    0.00000013
     atom   15 type  1   force =    -0.00000000    0.00000000   -0.00000334
     atom   16 type  1   force =     0.00000000   -0.00000000    0.00000430
     atom   17 type  1   force =    -0.00000000   -0.00000000   -0.00000399
     atom   18 type  1   force =    -0.00000000    0.00000000    0.00000335
     atom   19 type  1   force =     0.00000000    0.00000000   -0.00000014
     atom   20 type  1   force =    -0.00000000    0.00000000   -0.00000036
     atom   21 type  1   force =    -0.00000000   -0.00000000    0.00000051
     atom   22 type  1   force =    -0.00000000    0.00000000    0.00000013
     atom   23 type  1   force =    -0.00000000    0.00000000   -0.00000334
     atom   24 type  1   force =    -0.00000000    0.00000000    0.00000430
     atom   25 type  1   force =    -0.00000000   -0.00000000   -0.00000396
     atom   26 type  1   force =    -0.00000000   -0.00000000    0.00000335
     atom   27 type  1   force =    -0.00000000   -0.00000000   -0.00000014
     atom   28 type  1   force =    -0.00000000   -0.00000000   -0.00000036
     atom   29 type  1   force =    -0.00000000    0.00000000    0.00000052
     atom   30 type  1   force =    -0.00000000   -0.00000000    0.00000013
     atom   31 type  1   force =    -0.00000000    0.00000000   -0.00000333
     atom   32 type  1   force =    -0.00000000   -0.00000000    0.00000430

     Total force =     0.001176     Total SCF correction =     0.000015
     Energy error            =      8.9E-06 Ry
     Gradient error          =      3.7E-04 Ry/Bohr

     bfgs converged in  21 scf cycles and  15 bfgs steps
     (criteria: energy <  1.0E-05 Ry, force <  3.9E-04 Ry/Bohr)

     End of BFGS Geometry Optimization

     Final energy             =    -481.3125155370 Ry

     File ./Li/Lithium.bfgs deleted, as requested
Begin final coordinates

ATOMIC_POSITIONS (angstrom)
Li              -0.0000000700       -0.0000000700       21.7998156684
Li               1.7175787991        1.7175787991       19.8440432772
Li              -0.0000000700       -0.0000000700       25.2230141609
Li               1.7175730211        1.7175730211       23.4828452235
Li              -0.0000000700       -0.0000000700       28.7582485209
Li               1.7175877315        1.7175877315       27.0181201799
Li              -0.0000000600       -0.0000000600       32.3970548600
Li               1.7175655400        1.7175655400       30.4412840785
Li              -0.0000000700        3.4351561600       21.7998206747
Li               1.7175787991        5.1527335309       19.8440432972
Li              -0.0000000700        3.4351561700       25.2230031274
Li               1.7175730211        5.1527393089       23.4828452135
Li              -0.0000000700        3.4351561800       28.7582780019
Li               1.7175877315        5.1527246085       27.0181201799
Li              -0.0000000600        3.4351561700       32.3970318100
Li               1.7175655400        5.1527468000       30.4412840885
Li               3.4351561600       -0.0000000700       21.7998206747
Li               5.1527335309        1.7175787991       19.8440432972
Li               3.4351561700       -0.0000000700       25.2230031274
Li               5.1527393089        1.7175730211       23.4828452135
Li               3.4351561800       -0.0000000700       28.7582780019
Li               5.1527246085        1.7175877315       27.0181201799
Li               3.4351561700       -0.0000000600       32.3970318100
Li               5.1527468000        1.7175655400       30.4412840885
Li               3.4351561600        3.4351561600       21.7998279247
Li               5.1527335309        5.1527335309       19.8440433072
Li               3.4351561700        3.4351561700       25.2229905460
Li               5.1527393089        5.1527393089       23.4828452135
Li               3.4351561800        3.4351561800       28.7583058184
Li               5.1527246085        5.1527246085       27.0181201799
Li               3.4351561700        3.4351561700       32.3970062122
Li               5.1527468000        5.1527468000       30.4412840885
End final coordinates



     Writing all to output data dir ./Li/Lithium.save/ :
     XML data file
     init_run     :      7.42s CPU      8.48s WALL (       1 calls)
     electrons    :   3864.79s CPU   3894.11s WALL (      21 calls)
     update_pot   :      2.19s CPU      2.24s WALL (      20 calls)
     forces       :    430.35s CPU    431.71s WALL (      21 calls)

     Called by init_run:
     wfcinit      :      1.61s CPU      1.90s WALL (       1 calls)
     wfcinit:wfcr :      1.53s CPU      1.82s WALL (      11 calls)
     potinit      :      0.11s CPU      0.48s WALL (       1 calls)
     hinit0       :      2.44s CPU      2.68s WALL (       1 calls)

     Called by electrons:
     c_bands      :   2392.15s CPU   2411.62s WALL (     305 calls)
     sum_band     :    229.10s CPU    231.02s WALL (     305 calls)
     v_of_rho     :     21.28s CPU     21.49s WALL (     306 calls)
     v_h          :      1.67s CPU      1.68s WALL (     306 calls)
     v_xc         :     19.60s CPU     19.81s WALL (     306 calls)
     newd         :      7.21s CPU      7.60s WALL (     306 calls)
     PAW_pot      :      6.80s CPU      6.96s WALL (     326 calls)
     mix_rho      :     61.51s CPU     61.96s WALL (     305 calls)

     Called by c_bands:
     init_us_2    :     26.36s CPU     26.54s WALL (    7172 calls)
     cegterg      :   2266.50s CPU   2282.65s WALL (    3679 calls)

     Called by sum_band:
     sum_band:wei :      0.91s CPU      0.91s WALL (     305 calls)
     sum_band:loo :    215.52s CPU    216.88s WALL (     305 calls)
     sum_band:buf :      2.33s CPU      2.38s WALL (    3355 calls)
     sum_band:ini :     12.46s CPU     12.52s WALL (    3355 calls)
     sum_band:cal :     24.96s CPU     25.12s WALL (    3575 calls)
     sum_band:bec :      0.88s CPU      0.91s WALL (    3575 calls)
     addusdens    :      5.82s CPU      6.18s WALL (     305 calls)
                                        0.00s GPU  (     305 calls)
     addusd:skk   :      1.13s CPU      1.14s WALL (     305 calls)
                                        0.00s GPU  (     305 calls)

     Called by *egterg:
     cdiaghg      :    476.99s CPU    481.68s WALL (   41272 calls)
     cegterg:over :    162.26s CPU    163.37s WALL (   38120 calls)
     cegterg:upda :     89.07s CPU     89.50s WALL (   38120 calls)
     cegterg:last :     15.77s CPU     15.84s WALL (    4105 calls)
     h_psi        :   1392.56s CPU   1402.16s WALL (   41810 calls)
     s_psi        :     72.72s CPU     73.15s WALL (   41810 calls)
     g_psi        :      2.41s CPU      2.43s WALL (   38120 calls)

     Called by h_psi:
     h_psi:calbec :    118.62s CPU    119.81s WALL (   41810 calls)
     vloc_psi     :   1191.29s CPU   1199.29s WALL (   41810 calls)
                                        0.00s GPU  (   41810 calls)
     add_vuspsi   :     77.11s CPU     77.56s WALL (   41810 calls)

     General routines
     calbec       :    149.25s CPU    150.69s WALL (   46309 calls)
     fft          :     20.36s CPU     20.58s WALL (    4018 calls)
     ffts         :     32.88s CPU     33.48s WALL (   33083 calls)
     fftw         :   1305.45s CPU   1314.17s WALL ( 2006322 calls)
     interpolate  :      1.59s CPU      1.99s WALL (     306 calls)
 
     Parallel routines

     PAW routines
     PAW_pot      :      6.80s CPU      6.96s WALL (     326 calls)
     PAW_symme    :      0.13s CPU      0.13s WALL (     631 calls)
 
     Environ routines
 
     PWSCF        :      1h14m CPU      1h14m WALL

 
   This run was terminated on:   0:22:18   5Jan2025            

=------------------------------------------------------------------------------=
   JOB DONE.
=------------------------------------------------------------------------------=
