
     Program PWSCF v.7.4 starts on  2Jan2025 at 10:45:29 

     This program is part of the open-source Quantum ESPRESSO suite
     for quantum simulation of materials; please cite
         "P. Giannozzi et al., J. Phys.:Condens. Matter 21 395502 (2009);
         "P. Giannozzi et al., J. Phys.:Condens. Matter 29 465901 (2017);
         "P. Giannozzi et al., J. Chem. Phys. 152 154105 (2020);
          URL http://www.quantum-espresso.org", 
     in publications or presentations arising from this work. More details at
     http://www.quantum-espresso.org/quote

     Parallel version (MPI & OpenMP), running on     512 processor cores
     Number of MPI processes:               512
     Threads/MPI process:                     1

     MPI processes distributed on     4 nodes
     231098 MiB available memory on the printing compute node when the environment starts

     Reading input from espresso.pwi
Warning: card &CELL ignored
Warning: card    PRESS_CONV_THR   = 0.1 ignored
Warning: card    CELL_DOFREE      = 'ALL' ignored
Warning: card / ignored
Warning: card &FCP ignored
Warning: card / ignored
Warning: card &RISM ignored
Warning: card / ignored

     Current dimensions of program PWSCF are:
     Max number of different atomic species (ntypx) = 10
     Max number of k-points (npk) =  40000
     Max angular momentum in pseudopotentials (lmaxx) =  4

     IMPORTANT: XC functional enforced from input :
     Exchange-correlation= PBE
                           (   1   4   3   4   0   0   0)
     Any further DFT definition will be discarded
     Please, verify this is what you really want


     Reading input from environ.in:
     * using ionic solvent mode
     * setting boundary derivatives method to SSCS default
     * setting electrolyte-boundary derivatives method to SSCS default

Environ Warning (1001): card EOF ignored

     

     K-points division:     npool     =       2
     R & G space division:  proc/nbgrp/npool/nimage =     256
     Subspace diagonalization in iterative solution of the eigenvalue problem:
     a serial algorithm will be used


     Parallelization info
     --------------------
     sticks:   dense  smooth     PW     G-vecs:    dense   smooth      PW
     Min          33      13      3                18746     4723     645
     Max          34      14      4                18791     4776     724
     Sum        8497    3389    941              4805333  1215433  176195

     Using Slab Decomposition



     bravais-lattice index     =           12
     lattice parameter (alat)  =      12.9830  a.u.
     unit-cell volume          =   12574.0527 (a.u.)^3
     number of atoms/cell      =           20
     number of atomic types    =            1
     number of electrons       =        60.00
     number of Kohn-Sham states=           45
     kinetic-energy cutoff     =      80.0000  Ry
     charge density cutoff     =     800.0000  Ry
     scf convergence threshold =      1.0E-06
     mixing beta               =       0.2000
     number of iterations used =            8  local-TF  mixing
     energy convergence thresh.=      1.0E-05
     force convergence thresh. =      3.9E-04
     Exchange-correlation= PBE
                           (   1   4   3   4   0   0   0)
     nstep                     =          999


     ================================================================================

                                  Environ Setup Summary

     ================================================================================

     Please cite

          O. Andreussi, I. Dabo and N. Marzari, J. Chem. Phys. 136, 064102 (2012)
          F. Nattino, M. Truscott, N. Marzari, and O. Andreussi, J. Chem. Phys. 150, 041722 (2019)

     in publications or presentations arising from this work.

     ================================================================================

     Parameters
     ==========

     compensation onset threshold      =               0.1000E+00
     static permittivity               =                    89.90
     surface tension in input (dyn/cm) =                    37.30
     surface tension in internal units =               0.4792E-04

     Solvent Boundary
     ================

     solvent mode                      =                    ionic
     derivatives method                =                   lowmem
     electrolyte derivatives method    =                   lowmem
     numerical core for derivatives    =                      fft
     switching function adopted        =                     SCCS
     density limit for vacuum region   =               0.5000E-02
     density limit for bulk solvent    =               0.1000E-03
     soft-sphere radius mode           =                    bondi
     soft-sphere softness              =                     0.50
     alpha                             =                     1.32

     Electrostatic Setup
     ===================

     electrostatic problem to solve    =                    modpb
     numerical solver adopted          =                   newton
     type of auxiliary density adopted =                     none
     numerical core for poisson        =                      fft
     adopting a nested solver scheme
     inner solver                      =                       cg
     inner core                        =                      fft
     type of pbc corrections           =                parabolic
     numerical core for corrections    =                      1da

     ================================================================================


     >>>>> Grand-Canonical SCF is activated <<<<<
     Initial Total Charge  =     0.000000 e
     Target Fermi Energy   =    -2.904000 eV
     Thr. of Fermi Energy  =     0.001000 eV
     Wave-shift of Kerker  =     0.400000 bohr^-1
     Wave-shift of Hartree =     1.500000 bohr^-1
     Mixing Rate of Fermi  =     0.050000

     celldm(1)=  12.983009  celldm(2)=   0.829156  celldm(3)=   7.267908
     celldm(4)=  -0.301511  celldm(5)=   0.000000  celldm(6)=   0.000000

     crystal axes: (cart. coord. in units of alat)
               a(1) = (   1.000000   0.000000   0.000000 )  
               a(2) = (  -0.250000   0.790569   0.000000 )  
               a(3) = (   0.000000   0.000000   7.267908 )  

     reciprocal axes: (cart. coord. in units 2 pi/alat)
               b(1) = (  1.000000  0.316228 -0.000000 )  
               b(2) = (  0.000000  1.264912  0.000000 )  
               b(3) = (  0.000000 -0.000000  0.137591 )  


     PseudoPot. # 1 for Li read from file:
     /work/e89/e89/ba3g18/Repos/Pseudopotentials/Pslibrary/Li.pbe-sl-kjpaw_psl.1.0.0.UPF
     MD5 check sum: 3f4d2cafebb47c6c3aa8ed472e6f074d
     Pseudo is Projector augmented-wave, Zval =  3.0
     Generated using 'atomic' code by A. Dal Corso  v.7.4
     Shape of augmentation charge: PSQ
     Using radial grid of 1017 points,  4 beta functions with: 
                l(1) =   0
                l(2) =   0
                l(3) =   1
                l(4) =   1
     Q(r) pseudized with 0 coefficients 


     atomic species   valence    mass     pseudopotential
     Li                3.00     6.94000     Li( 1.00)

     No symmetry found


                                    s                        frac. trans.

      isym =  1     identity                                     

 cryst.   s( 1) = (     1          0          0      )
                  (     0          1          0      )
                  (     0          0          1      )

 cart.    s( 1) = (  1.0000000 -0.0000000  0.0000000 )
                  (  0.0000000  1.0000000  0.0000000 )
                  (  0.0000000  0.0000000  1.0000000 )


     point group C_1 (1)    
     there are  1 classes
     the character table:

       E    
A      1.00

     the symmetry operations in each class and the name of the first element:

     E        1
          identity                                               

   Cartesian axes

     site n.     atom                  positions (alat units)
         1        Li     tau(   1) = (   0.2502963   0.3204171   3.0702267  )
         2        Li     tau(   2) = (   0.0002863   0.6453842   3.2428198  )
         3        Li     tau(   3) = (   0.0001726   0.1676813   3.3840503  )
         4        Li     tau(   4) = (   0.2500940   0.4722733   3.5608164  )
         5        Li     tau(   5) = (   0.2499021   0.0020099   3.7071725  )
         6        Li     tau(   6) = (  -0.0001739   0.3066287   3.8838669  )
         7        Li     tau(   7) = (   0.2497029   0.6195145   4.0251277  )
         8        Li     tau(   8) = (   0.2497012   0.1539788   4.1976142  )
         9        Li     tau(   9) = (  -0.0003886   0.5081047   4.3736774  )
        10        Li     tau(  10) = (   0.5003892  -0.0336773   2.8941273  )
        11        Li     tau(  11) = (   0.7502940   0.3204038   3.0702134  )
        12        Li     tau(  12) = (   0.5002964   0.6453656   3.2428227  )
        13        Li     tau(  13) = (   0.5001769   0.1676683   3.3840466  )
        14        Li     tau(  14) = (   0.7500956   0.4722692   3.5608308  )
        15        Li     tau(  15) = (   0.7499095   0.0020088   3.7071934  )
        16        Li     tau(  16) = (   0.4998228   0.3066383   3.8838760  )
        17        Li     tau(  17) = (   0.7497150   0.6194915   4.0251313  )
        18        Li     tau(  18) = (   0.7497038   0.1539722   4.1976111  )
        19        Li     tau(  19) = (   0.4996101   0.5081094   4.3736997  )
        20        Li     tau(  20) = (   1.0003942  -0.0336858   2.8941505  )

   Crystallographic axes

     site n.     atom                  positions (cryst. coord.)
         1        Li     tau(   1) = (  0.3516211  0.4052993  0.4224361  )
         2        Li     tau(   2) = (  0.2043749  0.8163541  0.4461834  )
         3        Li     tau(   3) = (  0.0531981  0.2121020  0.4656155  )
         4        Li     tau(   4) = (  0.3994400  0.5973840  0.4899369  )
         5        Li     tau(   5) = (  0.2505377  0.0025424  0.5100742  )
         6        Li     tau(   6) = (  0.0967907  0.3878583  0.5343858  )
         7        Li     tau(   7) = (  0.4456107  0.7836311  0.5538220  )
         8        Li     tau(   8) = (  0.2983936  0.1947695  0.5775547  )
         9        Li     tau(   9) = (  0.1602884  0.6427076  0.6017794  )
        10        Li     tau(  10) = (  0.4897395 -0.0425988  0.3982064  )
        11        Li     tau(  11) = (  0.8516147  0.4052826  0.4224343  )
        12        Li     tau(  12) = (  0.7043790  0.8163305  0.4461838  )
        13        Li     tau(  13) = (  0.5531983  0.2120856  0.4656149  )
        14        Li     tau(  14) = (  0.8994403  0.5973788  0.4899389  )
        15        Li     tau(  15) = (  0.7505447  0.0025409  0.5100771  )
        16        Li     tau(  16) = (  0.5967904  0.3878704  0.5343871  )
        17        Li     tau(  17) = (  0.9456155  0.7836020  0.5538226  )
        18        Li     tau(  18) = (  0.7983941  0.1947612  0.5775542  )
        19        Li     tau(  19) = (  0.6602884  0.6427135  0.6017825  )
        20        Li     tau(  20) = (  0.9897418 -0.0426096  0.3982096  )

     number of k points=    62  Marzari-Vanderbilt smearing, width (Ry)=  0.0100
                       cart. coord. in units 2pi/alat
        k(    1) = (   0.0000000   0.0000000   0.0000000), wk =   0.0166667
        k(    2) = (   0.0000000   0.1054093   0.0000000), wk =   0.0333333
        k(    3) = (   0.0000000   0.2108186   0.0000000), wk =   0.0333333
        k(    4) = (   0.0000000   0.3162279   0.0000000), wk =   0.0333333
        k(    5) = (   0.0000000   0.4216372   0.0000000), wk =   0.0333333
        k(    6) = (   0.0000000   0.5270466   0.0000000), wk =   0.0333333
        k(    7) = (   0.0000000  -0.6324559   0.0000000), wk =   0.0166667
        k(    8) = (   0.1000000   0.0316228   0.0000000), wk =   0.0333333
        k(    9) = (   0.1000000   0.1370321   0.0000000), wk =   0.0333333
        k(   10) = (   0.1000000   0.2424414   0.0000000), wk =   0.0333333
        k(   11) = (   0.1000000   0.3478507   0.0000000), wk =   0.0333333
        k(   12) = (   0.1000000   0.4532600   0.0000000), wk =   0.0333333
        k(   13) = (   0.1000000   0.5586693   0.0000000), wk =   0.0333333
        k(   14) = (   0.1000000  -0.6008331   0.0000000), wk =   0.0333333
        k(   15) = (   0.1000000  -0.4954238   0.0000000), wk =   0.0333333
        k(   16) = (   0.1000000  -0.3900144   0.0000000), wk =   0.0333333
        k(   17) = (   0.1000000  -0.2846051   0.0000000), wk =   0.0333333
        k(   18) = (   0.1000000  -0.1791958   0.0000000), wk =   0.0333333
        k(   19) = (   0.1000000  -0.0737865   0.0000000), wk =   0.0333333
        k(   20) = (   0.2000000   0.0632456   0.0000000), wk =   0.0333333
        k(   21) = (   0.2000000   0.1686549   0.0000000), wk =   0.0333333
        k(   22) = (   0.2000000   0.2740642   0.0000000), wk =   0.0333333
        k(   23) = (   0.2000000   0.3794735   0.0000000), wk =   0.0333333
        k(   24) = (   0.2000000   0.4848828   0.0000000), wk =   0.0333333
        k(   25) = (   0.2000000   0.5902921   0.0000000), wk =   0.0333333
        k(   26) = (   0.2000000  -0.5692103   0.0000000), wk =   0.0333333
        k(   27) = (   0.2000000  -0.4638010   0.0000000), wk =   0.0333333
        k(   28) = (   0.2000000  -0.3583917   0.0000000), wk =   0.0333333
        k(   29) = (   0.2000000  -0.2529823   0.0000000), wk =   0.0333333
        k(   30) = (   0.2000000  -0.1475730   0.0000000), wk =   0.0333333
        k(   31) = (   0.2000000  -0.0421637   0.0000000), wk =   0.0333333
        k(   32) = (   0.3000000   0.0948684   0.0000000), wk =   0.0333333
        k(   33) = (   0.3000000   0.2002777   0.0000000), wk =   0.0333333
        k(   34) = (   0.3000000   0.3056870   0.0000000), wk =   0.0333333
        k(   35) = (   0.3000000   0.4110963   0.0000000), wk =   0.0333333
        k(   36) = (   0.3000000   0.5165056   0.0000000), wk =   0.0333333
        k(   37) = (   0.3000000   0.6219149   0.0000000), wk =   0.0333333
        k(   38) = (   0.3000000  -0.5375875   0.0000000), wk =   0.0333333
        k(   39) = (   0.3000000  -0.4321782   0.0000000), wk =   0.0333333
        k(   40) = (   0.3000000  -0.3267689   0.0000000), wk =   0.0333333
        k(   41) = (   0.3000000  -0.2213596   0.0000000), wk =   0.0333333
        k(   42) = (   0.3000000  -0.1159502   0.0000000), wk =   0.0333333
        k(   43) = (   0.3000000  -0.0105409   0.0000000), wk =   0.0333333
        k(   44) = (   0.4000000   0.1264912   0.0000000), wk =   0.0333333
        k(   45) = (   0.4000000   0.2319005   0.0000000), wk =   0.0333333
        k(   46) = (   0.4000000   0.3373098   0.0000000), wk =   0.0333333
        k(   47) = (   0.4000000   0.4427191   0.0000000), wk =   0.0333333
        k(   48) = (   0.4000000   0.5481284   0.0000000), wk =   0.0333333
        k(   49) = (   0.4000000   0.6535377   0.0000000), wk =   0.0333333
        k(   50) = (   0.4000000  -0.5059647   0.0000000), wk =   0.0333333
        k(   51) = (   0.4000000  -0.4005554   0.0000000), wk =   0.0333333
        k(   52) = (   0.4000000  -0.2951461   0.0000000), wk =   0.0333333
        k(   53) = (   0.4000000  -0.1897368   0.0000000), wk =   0.0333333
        k(   54) = (   0.4000000  -0.0843274   0.0000000), wk =   0.0333333
        k(   55) = (   0.4000000   0.0210819   0.0000000), wk =   0.0333333
        k(   56) = (  -0.5000000  -0.1581140   0.0000000), wk =   0.0166667
        k(   57) = (  -0.5000000  -0.0527047   0.0000000), wk =   0.0333333
        k(   58) = (  -0.5000000   0.0527047   0.0000000), wk =   0.0333333
        k(   59) = (  -0.5000000   0.1581140   0.0000000), wk =   0.0333333
        k(   60) = (  -0.5000000   0.2635233   0.0000000), wk =   0.0333333
        k(   61) = (  -0.5000000   0.3689326   0.0000000), wk =   0.0333333
        k(   62) = (  -0.5000000  -0.7905698   0.0000000), wk =   0.0166667

                       cryst. coord.
        k(    1) = (   0.0000000   0.0000000   0.0000000), wk =   0.0166667
        k(    2) = (   0.0000000   0.0833333   0.0000000), wk =   0.0333333
        k(    3) = (   0.0000000   0.1666667   0.0000000), wk =   0.0333333
        k(    4) = (   0.0000000   0.2500000   0.0000000), wk =   0.0333333
        k(    5) = (   0.0000000   0.3333333   0.0000000), wk =   0.0333333
        k(    6) = (   0.0000000   0.4166667   0.0000000), wk =   0.0333333
        k(    7) = (   0.0000000  -0.5000000   0.0000000), wk =   0.0166667
        k(    8) = (   0.1000000  -0.0000000   0.0000000), wk =   0.0333333
        k(    9) = (   0.1000000   0.0833333   0.0000000), wk =   0.0333333
        k(   10) = (   0.1000000   0.1666667   0.0000000), wk =   0.0333333
        k(   11) = (   0.1000000   0.2500000   0.0000000), wk =   0.0333333
        k(   12) = (   0.1000000   0.3333333   0.0000000), wk =   0.0333333
        k(   13) = (   0.1000000   0.4166667   0.0000000), wk =   0.0333333
        k(   14) = (   0.1000000  -0.5000000   0.0000000), wk =   0.0333333
        k(   15) = (   0.1000000  -0.4166667   0.0000000), wk =   0.0333333
        k(   16) = (   0.1000000  -0.3333333   0.0000000), wk =   0.0333333
        k(   17) = (   0.1000000  -0.2500000   0.0000000), wk =   0.0333333
        k(   18) = (   0.1000000  -0.1666667   0.0000000), wk =   0.0333333
        k(   19) = (   0.1000000  -0.0833333   0.0000000), wk =   0.0333333
        k(   20) = (   0.2000000  -0.0000000   0.0000000), wk =   0.0333333
        k(   21) = (   0.2000000   0.0833333   0.0000000), wk =   0.0333333
        k(   22) = (   0.2000000   0.1666667   0.0000000), wk =   0.0333333
        k(   23) = (   0.2000000   0.2500000   0.0000000), wk =   0.0333333
        k(   24) = (   0.2000000   0.3333333   0.0000000), wk =   0.0333333
        k(   25) = (   0.2000000   0.4166667   0.0000000), wk =   0.0333333
        k(   26) = (   0.2000000  -0.5000000   0.0000000), wk =   0.0333333
        k(   27) = (   0.2000000  -0.4166667   0.0000000), wk =   0.0333333
        k(   28) = (   0.2000000  -0.3333333   0.0000000), wk =   0.0333333
        k(   29) = (   0.2000000  -0.2500000   0.0000000), wk =   0.0333333
        k(   30) = (   0.2000000  -0.1666667   0.0000000), wk =   0.0333333
        k(   31) = (   0.2000000  -0.0833333   0.0000000), wk =   0.0333333
        k(   32) = (   0.3000000  -0.0000000   0.0000000), wk =   0.0333333
        k(   33) = (   0.3000000   0.0833333   0.0000000), wk =   0.0333333
        k(   34) = (   0.3000000   0.1666667   0.0000000), wk =   0.0333333
        k(   35) = (   0.3000000   0.2500000   0.0000000), wk =   0.0333333
        k(   36) = (   0.3000000   0.3333333   0.0000000), wk =   0.0333333
        k(   37) = (   0.3000000   0.4166667   0.0000000), wk =   0.0333333
        k(   38) = (   0.3000000  -0.5000000   0.0000000), wk =   0.0333333
        k(   39) = (   0.3000000  -0.4166667   0.0000000), wk =   0.0333333
        k(   40) = (   0.3000000  -0.3333333   0.0000000), wk =   0.0333333
        k(   41) = (   0.3000000  -0.2500000   0.0000000), wk =   0.0333333
        k(   42) = (   0.3000000  -0.1666667   0.0000000), wk =   0.0333333
        k(   43) = (   0.3000000  -0.0833333   0.0000000), wk =   0.0333333
        k(   44) = (   0.4000000  -0.0000000   0.0000000), wk =   0.0333333
        k(   45) = (   0.4000000   0.0833333   0.0000000), wk =   0.0333333
        k(   46) = (   0.4000000   0.1666667   0.0000000), wk =   0.0333333
        k(   47) = (   0.4000000   0.2500000   0.0000000), wk =   0.0333333
        k(   48) = (   0.4000000   0.3333333   0.0000000), wk =   0.0333333
        k(   49) = (   0.4000000   0.4166667   0.0000000), wk =   0.0333333
        k(   50) = (   0.4000000  -0.5000000   0.0000000), wk =   0.0333333
        k(   51) = (   0.4000000  -0.4166667   0.0000000), wk =   0.0333333
        k(   52) = (   0.4000000  -0.3333333   0.0000000), wk =   0.0333333
        k(   53) = (   0.4000000  -0.2500000   0.0000000), wk =   0.0333333
        k(   54) = (   0.4000000  -0.1666667   0.0000000), wk =   0.0333333
        k(   55) = (   0.4000000  -0.0833333   0.0000000), wk =   0.0333333
        k(   56) = (  -0.5000000   0.0000000   0.0000000), wk =   0.0166667
        k(   57) = (  -0.5000000   0.0833333   0.0000000), wk =   0.0333333
        k(   58) = (  -0.5000000   0.1666667   0.0000000), wk =   0.0333333
        k(   59) = (  -0.5000000   0.2500000   0.0000000), wk =   0.0333333
        k(   60) = (  -0.5000000   0.3333333   0.0000000), wk =   0.0333333
        k(   61) = (  -0.5000000   0.4166667   0.0000000), wk =   0.0333333
        k(   62) = (  -0.5000000  -0.5000000   0.0000000), wk =   0.0166667

     Dense  grid:  4805333 G-vectors     FFT dimensions: ( 120, 100, 864)

     Smooth grid:  1215433 G-vectors     FFT dimensions: (  75,  64, 540)

     Dynamical RAM for                 wfc:       0.41 MB

     Dynamical RAM for     wfc (w. buffer):      13.03 MB

     Dynamical RAM for           str. fact:       0.29 MB

     Dynamical RAM for           local pot:       0.00 MB

     Dynamical RAM for          nlocal pot:       1.45 MB

     Dynamical RAM for                qrad:       0.65 MB

     Dynamical RAM for          rho,v,vnew:       1.96 MB

     Dynamical RAM for               rhoin:       0.65 MB

     Dynamical RAM for            rho*nmix:       4.59 MB

     Dynamical RAM for           G-vectors:       1.11 MB

     Dynamical RAM for          h,s,v(r/c):       1.48 MB

     Dynamical RAM for          <psi|beta>:       0.11 MB

     Dynamical RAM for                 psi:       1.63 MB

     Dynamical RAM for                hpsi:       1.63 MB

     Dynamical RAM for                spsi:       1.63 MB

     Dynamical RAM for      wfcinit/wfcrot:       0.86 MB

     Dynamical RAM for           addusdens:       9.17 MB

     Dynamical RAM for          addusforce:      14.64 MB

     Estimated static dynamical RAM per process >      21.54 MB

     Estimated max dynamical RAM per process >      73.32 MB

     Estimated total dynamical RAM >      19.24 GB

     Initial potential from superposition of free atoms

     starting charge      59.9078, renormalised to      60.0000

     negative rho (up, down):  2.054E-03 0.000E+00
     Starting wfcs are random
     Checking if some PAW data can be deallocated... 

     total cpu time spent up to now is       19.4 secs

     Self-consistent Calculation

     iteration #  1     ecut=    80.00 Ry     beta= 0.20
     Davidson diagonalization with overlap

---- Real-time Memory Report at c_bands before calling an iterative solver
           267 MiB given to the printing process from OS
             0 MiB allocation reported by mallinfo(arena+hblkhd)
        220873 MiB available memory on the node where the printing process lives
------------------
     ethr =  1.00E-12,  avg # of iterations = 99.2

     negative rho (up, down):  1.529E-03 0.000E+00

     add environment contribution to local potential

     total cpu time spent up to now is      143.1 secs

     total energy              =    -300.71098719 Ry
     estimated scf accuracy    <       0.08049990 Ry

     total charge of GC-SCF    =       0.01769638 e
     the Fermi energy          =      -4.46187378 eV
                        (error :       1.55787378 eV)
     electrostatic embedding   =       0.00000000 Ry
     cavitation energy         =       0.01593170 Ry
     electrolyte free energy   =       0.00541203 Ry
     correction to one-el term =      -0.00000000 Ry

     iteration #  2     ecut=    80.00 Ry     beta= 0.20
     Davidson diagonalization with overlap

---- Real-time Memory Report at c_bands before calling an iterative solver
           267 MiB given to the printing process from OS
             0 MiB allocation reported by mallinfo(arena+hblkhd)
        222040 MiB available memory on the node where the printing process lives
------------------
     ethr =  1.00E-05,  avg # of iterations = 14.5

     negative rho (up, down):  1.171E-03 0.000E+00

     add environment contribution to local potential

     total cpu time spent up to now is      162.0 secs

     total energy              =    -300.71557783 Ry
     estimated scf accuracy    <       0.01714110 Ry

     total charge of GC-SCF    =       0.02763181 e
     the Fermi energy          =      -3.42075016 eV
                        (error :       0.51675016 eV)
     electrostatic embedding   =      -0.01944607 Ry
     cavitation energy         =       0.01593170 Ry
     electrolyte free energy   =      -0.00347304 Ry
     correction to one-el term =      -0.81596919 Ry

     iteration #  3     ecut=    80.00 Ry     beta= 0.20
     Davidson diagonalization with overlap

---- Real-time Memory Report at c_bands before calling an iterative solver
           267 MiB given to the printing process from OS
             0 MiB allocation reported by mallinfo(arena+hblkhd)
        222063 MiB available memory on the node where the printing process lives
------------------
     ethr =  1.00E-05,  avg # of iterations = 10.3

     negative rho (up, down):  8.854E-04 0.000E+00

     add environment contribution to local potential

     total cpu time spent up to now is      177.4 secs

     total energy              =    -300.68868553 Ry
     estimated scf accuracy    <       0.01070450 Ry

     total charge of GC-SCF    =       0.05186496 e
     the Fermi energy          =      -3.11676174 eV
                        (error :       0.21276174 eV)
     electrostatic embedding   =      -0.01737482 Ry
     cavitation energy         =       0.01593170 Ry
     electrolyte free energy   =      -0.00280803 Ry
     correction to one-el term =      -0.98248234 Ry

     iteration #  4     ecut=    80.00 Ry     beta= 0.20
     Davidson diagonalization with overlap

---- Real-time Memory Report at c_bands before calling an iterative solver
           267 MiB given to the printing process from OS
             0 MiB allocation reported by mallinfo(arena+hblkhd)
        222090 MiB available memory on the node where the printing process lives
------------------
     ethr =  1.00E-05,  avg # of iterations = 11.8

     negative rho (up, down):  7.317E-04 0.000E+00

     add environment contribution to local potential

     total cpu time spent up to now is      195.5 secs

     total energy              =    -300.70897626 Ry
     estimated scf accuracy    <       0.00206316 Ry

     total charge of GC-SCF    =       0.07343696 e
     the Fermi energy          =      -2.78650202 eV
                        (error :       0.11749798 eV)
     electrostatic embedding   =      -0.01510769 Ry
     cavitation energy         =       0.01593170 Ry
     electrolyte free energy   =      -0.00142989 Ry
     correction to one-el term =      -0.74292027 Ry

     iteration #  5     ecut=    80.00 Ry     beta= 0.20
     Davidson diagonalization with overlap

---- Real-time Memory Report at c_bands before calling an iterative solver
           267 MiB given to the printing process from OS
             0 MiB allocation reported by mallinfo(arena+hblkhd)
        222098 MiB available memory on the node where the printing process lives
------------------
     ethr =  3.44E-06,  avg # of iterations = 12.4

     negative rho (up, down):  6.383E-04 0.000E+00

     add environment contribution to local potential

     total cpu time spent up to now is      214.4 secs

     total energy              =    -300.71232297 Ry
     estimated scf accuracy    <       0.00098059 Ry

     total charge of GC-SCF    =       0.10455387 e
     the Fermi energy          =      -2.70846918 eV
                        (error :       0.19553082 eV)
     electrostatic embedding   =      -0.01611834 Ry
     cavitation energy         =       0.01593170 Ry
     electrolyte free energy   =      -0.00109979 Ry
     correction to one-el term =      -0.40475629 Ry

     iteration #  6     ecut=    80.00 Ry     beta= 0.20
     Davidson diagonalization with overlap

---- Real-time Memory Report at c_bands before calling an iterative solver
           267 MiB given to the printing process from OS
             0 MiB allocation reported by mallinfo(arena+hblkhd)
        222092 MiB available memory on the node where the printing process lives
------------------
     ethr =  1.64E-06,  avg # of iterations = 12.9

     negative rho (up, down):  5.916E-04 0.000E+00

     add environment contribution to local potential

     total cpu time spent up to now is      232.9 secs

     total energy              =    -300.71213416 Ry
     estimated scf accuracy    <       0.00037439 Ry

     total charge of GC-SCF    =       0.13341866 e
     the Fermi energy          =      -2.66308869 eV
                        (error :       0.24091131 eV)
     electrostatic embedding   =      -0.01927610 Ry
     cavitation energy         =       0.01593170 Ry
     electrolyte free energy   =      -0.00098289 Ry
     correction to one-el term =      -0.29541553 Ry

     iteration #  7     ecut=    80.00 Ry     beta= 0.20
     Davidson diagonalization with overlap

---- Real-time Memory Report at c_bands before calling an iterative solver
           267 MiB given to the printing process from OS
             0 MiB allocation reported by mallinfo(arena+hblkhd)
        222082 MiB available memory on the node where the printing process lives
------------------
     ethr =  6.25E-07,  avg # of iterations = 12.3

     negative rho (up, down):  5.504E-04 0.000E+00

     add environment contribution to local potential

     total cpu time spent up to now is      250.4 secs

     total energy              =    -300.71260163 Ry
     estimated scf accuracy    <       0.00022290 Ry

     total charge of GC-SCF    =       0.16415506 e
     the Fermi energy          =      -2.75434253 eV
                        (error :       0.14965747 eV)
     electrostatic embedding   =      -0.02008052 Ry
     cavitation energy         =       0.01593170 Ry
     electrolyte free energy   =      -0.00122741 Ry
     correction to one-el term =      -1.01864084 Ry

     iteration #  8     ecut=    80.00 Ry     beta= 0.20
     Davidson diagonalization with overlap

---- Real-time Memory Report at c_bands before calling an iterative solver
           267 MiB given to the printing process from OS
             0 MiB allocation reported by mallinfo(arena+hblkhd)
        222018 MiB available memory on the node where the printing process lives
------------------
     ethr =  3.73E-07,  avg # of iterations = 12.9

     negative rho (up, down):  4.788E-04 0.000E+00

     add environment contribution to local potential

     total cpu time spent up to now is      269.1 secs

     total energy              =    -300.71266344 Ry
     estimated scf accuracy    <       0.00015312 Ry

     total charge of GC-SCF    =       0.18668693 e
     the Fermi energy          =      -2.73757596 eV
                        (error :       0.16642404 eV)
     electrostatic embedding   =      -0.02216411 Ry
     cavitation energy         =       0.01593170 Ry
     electrolyte free energy   =      -0.00122617 Ry
     correction to one-el term =      -1.66288028 Ry

     iteration #  9     ecut=    80.00 Ry     beta= 0.20
     Davidson diagonalization with overlap

---- Real-time Memory Report at c_bands before calling an iterative solver
           267 MiB given to the printing process from OS
             0 MiB allocation reported by mallinfo(arena+hblkhd)
        222017 MiB available memory on the node where the printing process lives
------------------
     ethr =  2.56E-07,  avg # of iterations =  9.6

     negative rho (up, down):  4.507E-04 0.000E+00

     add environment contribution to local potential

     total cpu time spent up to now is      284.6 secs

     total energy              =    -300.71288136 Ry
     estimated scf accuracy    <       0.00009457 Ry

     total charge of GC-SCF    =       0.21589932 e
     the Fermi energy          =      -2.68561487 eV
                        (error :       0.21838513 eV)
     electrostatic embedding   =      -0.02279312 Ry
     cavitation energy         =       0.01593170 Ry
     electrolyte free energy   =      -0.00112824 Ry
     correction to one-el term =      -2.49697867 Ry

     iteration # 10     ecut=    80.00 Ry     beta= 0.20
     Davidson diagonalization with overlap

---- Real-time Memory Report at c_bands before calling an iterative solver
           267 MiB given to the printing process from OS
             0 MiB allocation reported by mallinfo(arena+hblkhd)
        222018 MiB available memory on the node where the printing process lives
------------------
     ethr =  1.58E-07,  avg # of iterations = 11.1

     negative rho (up, down):  4.097E-04 0.000E+00

     add environment contribution to local potential

     total cpu time spent up to now is      300.5 secs

     total energy              =    -300.71392001 Ry
     estimated scf accuracy    <       0.00004428 Ry

     total charge of GC-SCF    =       0.23067077 e
     the Fermi energy          =      -2.72794848 eV
                        (error :       0.17605152 eV)
     electrostatic embedding   =      -0.02355973 Ry
     cavitation energy         =       0.01593170 Ry
     electrolyte free energy   =      -0.00124848 Ry
     correction to one-el term =      -3.65129007 Ry

     iteration # 11     ecut=    80.00 Ry     beta= 0.20
     Davidson diagonalization with overlap

---- Real-time Memory Report at c_bands before calling an iterative solver
           267 MiB given to the printing process from OS
             0 MiB allocation reported by mallinfo(arena+hblkhd)
        222004 MiB available memory on the node where the printing process lives
------------------
     ethr =  7.41E-08,  avg # of iterations = 13.0

     negative rho (up, down):  3.505E-04 0.000E+00

     add environment contribution to local potential

     total cpu time spent up to now is      318.9 secs

     total energy              =    -300.71410314 Ry
     estimated scf accuracy    <       0.00001232 Ry

     total charge of GC-SCF    =       0.24937335 e
     the Fermi energy          =      -2.75972966 eV
                        (error :       0.14427034 eV)
     electrostatic embedding   =      -0.02412167 Ry
     cavitation energy         =       0.01593170 Ry
     electrolyte free energy   =      -0.00134226 Ry
     correction to one-el term =      -4.22226951 Ry

     iteration # 12     ecut=    80.00 Ry     beta= 0.20
     Davidson diagonalization with overlap

---- Real-time Memory Report at c_bands before calling an iterative solver
           267 MiB given to the printing process from OS
             0 MiB allocation reported by mallinfo(arena+hblkhd)
        222012 MiB available memory on the node where the printing process lives
------------------
     ethr =  2.06E-08,  avg # of iterations = 13.5

     negative rho (up, down):  3.241E-04 0.000E+00

     add environment contribution to local potential

     total cpu time spent up to now is      338.7 secs

     total energy              =    -300.71365750 Ry
     estimated scf accuracy    <       0.00000918 Ry

     total charge of GC-SCF    =       0.29238059 e
     the Fermi energy          =      -2.76431733 eV
                        (error :       0.13968267 eV)
     electrostatic embedding   =      -0.02541529 Ry
     cavitation energy         =       0.01593170 Ry
     electrolyte free energy   =      -0.00137350 Ry
     correction to one-el term =      -4.84296341 Ry

     iteration # 13     ecut=    80.00 Ry     beta= 0.20
     Davidson diagonalization with overlap

---- Real-time Memory Report at c_bands before calling an iterative solver
           267 MiB given to the printing process from OS
             0 MiB allocation reported by mallinfo(arena+hblkhd)
        222012 MiB available memory on the node where the printing process lives
------------------
     ethr =  1.54E-08,  avg # of iterations = 19.1

     negative rho (up, down):  3.050E-04 0.000E+00

     add environment contribution to local potential

     total cpu time spent up to now is      360.9 secs

     total energy              =    -300.71440176 Ry
     estimated scf accuracy    <       0.00001770 Ry

     total charge of GC-SCF    =       0.35810160 e
     the Fermi energy          =      -2.80871604 eV
                        (error :       0.09528396 eV)
     electrostatic embedding   =      -0.02908132 Ry
     cavitation energy         =       0.01593170 Ry
     electrolyte free energy   =      -0.00154815 Ry
     correction to one-el term =      -6.25909349 Ry

     iteration # 14     ecut=    80.00 Ry     beta= 0.20
     Davidson diagonalization with overlap

---- Real-time Memory Report at c_bands before calling an iterative solver
           267 MiB given to the printing process from OS
             0 MiB allocation reported by mallinfo(arena+hblkhd)
        222015 MiB available memory on the node where the printing process lives
------------------
     ethr =  1.54E-08,  avg # of iterations = 17.4

     negative rho (up, down):  2.896E-04 0.000E+00

     add environment contribution to local potential

     total cpu time spent up to now is      381.7 secs

     total energy              =    -300.71505985 Ry
     estimated scf accuracy    <       0.00001170 Ry

     total charge of GC-SCF    =       0.37835286 e
     the Fermi energy          =      -2.81502634 eV
                        (error :       0.08897366 eV)
     electrostatic embedding   =      -0.03731872 Ry
     cavitation energy         =       0.01593170 Ry
     electrolyte free energy   =      -0.00167446 Ry
     correction to one-el term =      -8.37610195 Ry

     iteration # 15     ecut=    80.00 Ry     beta= 0.20
     Davidson diagonalization with overlap

---- Real-time Memory Report at c_bands before calling an iterative solver
           267 MiB given to the printing process from OS
             0 MiB allocation reported by mallinfo(arena+hblkhd)
        222019 MiB available memory on the node where the printing process lives
------------------
     ethr =  1.54E-08,  avg # of iterations = 12.7

     negative rho (up, down):  2.810E-04 0.000E+00

     add environment contribution to local potential

     total cpu time spent up to now is      398.7 secs

     total energy              =    -300.71536756 Ry
     estimated scf accuracy    <       0.00000609 Ry

     total charge of GC-SCF    =       0.43567740 e
     the Fermi energy          =      -2.84073815 eV
                        (error :       0.06326185 eV)
     electrostatic embedding   =      -0.04021438 Ry
     cavitation energy         =       0.01593170 Ry
     electrolyte free energy   =      -0.00178149 Ry
     correction to one-el term =      -8.98997894 Ry

     iteration # 16     ecut=    80.00 Ry     beta= 0.20
     Davidson diagonalization with overlap

---- Real-time Memory Report at c_bands before calling an iterative solver
           267 MiB given to the printing process from OS
             0 MiB allocation reported by mallinfo(arena+hblkhd)
        222022 MiB available memory on the node where the printing process lives
------------------
     ethr =  1.02E-08,  avg # of iterations = 23.8

     negative rho (up, down):  2.797E-04 0.000E+00

     add environment contribution to local potential

     total cpu time spent up to now is      425.1 secs

     total energy              =    -300.71573189 Ry
     estimated scf accuracy    <       0.00000181 Ry

     total charge of GC-SCF    =       0.48076393 e
     the Fermi energy          =      -2.86588344 eV
                        (error :       0.03811656 eV)
     electrostatic embedding   =      -0.05005646 Ry
     cavitation energy         =       0.01593170 Ry
     electrolyte free energy   =      -0.00197345 Ry
     correction to one-el term =     -10.83127907 Ry

     iteration # 17     ecut=    80.00 Ry     beta= 0.20
     Davidson diagonalization with overlap

---- Real-time Memory Report at c_bands before calling an iterative solver
           267 MiB given to the printing process from OS
             0 MiB allocation reported by mallinfo(arena+hblkhd)
        222026 MiB available memory on the node where the printing process lives
------------------
     ethr =  3.03E-09,  avg # of iterations = 27.4

     negative rho (up, down):  2.756E-04 0.000E+00

     add environment contribution to local potential

     total cpu time spent up to now is      456.0 secs

     total energy              =    -300.71570000 Ry
     estimated scf accuracy    <       0.00000053 Ry

     total charge of GC-SCF    =       0.49942547 e
     the Fermi energy          =      -2.88410248 eV
                        (error :       0.01989752 eV)
     electrostatic embedding   =      -0.05923052 Ry
     cavitation energy         =       0.01593170 Ry
     electrolyte free energy   =      -0.00213093 Ry
     correction to one-el term =     -12.25225602 Ry

     iteration # 18     ecut=    80.00 Ry     beta= 0.20
     Davidson diagonalization with overlap

---- Real-time Memory Report at c_bands before calling an iterative solver
           267 MiB given to the printing process from OS
             0 MiB allocation reported by mallinfo(arena+hblkhd)
        222019 MiB available memory on the node where the printing process lives
------------------
     c_bands:  1 eigenvalues not converged
     ethr =  8.96E-10,  avg # of iterations = 30.8

     negative rho (up, down):  2.701E-04 0.000E+00

     add environment contribution to local potential

     total cpu time spent up to now is      490.1 secs

     total energy              =    -300.71570600 Ry
     estimated scf accuracy    <       0.00000078 Ry

     total charge of GC-SCF    =       0.50530025 e
     the Fermi energy          =      -2.89705170 eV
                        (error :       0.00694830 eV)
     electrostatic embedding   =      -0.06330063 Ry
     cavitation energy         =       0.01593170 Ry
     electrolyte free energy   =      -0.00221293 Ry
     correction to one-el term =     -12.82859962 Ry

     iteration # 19     ecut=    80.00 Ry     beta= 0.20
     Davidson diagonalization with overlap

---- Real-time Memory Report at c_bands before calling an iterative solver
           267 MiB given to the printing process from OS
             0 MiB allocation reported by mallinfo(arena+hblkhd)
        222008 MiB available memory on the node where the printing process lives
------------------
     ethr =  8.96E-10,  avg # of iterations = 14.8

     negative rho (up, down):  2.649E-04 0.000E+00

     add environment contribution to local potential

     total cpu time spent up to now is      510.1 secs

     total energy              =    -300.71570962 Ry
     estimated scf accuracy    <       0.00000048 Ry

     total charge of GC-SCF    =       0.51008158 e
     the Fermi energy          =      -2.89951322 eV
                        (error :       0.00448678 eV)
     electrostatic embedding   =      -0.06463263 Ry
     cavitation energy         =       0.01593170 Ry
     electrolyte free energy   =      -0.00223480 Ry
     correction to one-el term =     -13.01567885 Ry

     iteration # 20     ecut=    80.00 Ry     beta= 0.20
     Davidson diagonalization with overlap

---- Real-time Memory Report at c_bands before calling an iterative solver
           267 MiB given to the printing process from OS
             0 MiB allocation reported by mallinfo(arena+hblkhd)
        222006 MiB available memory on the node where the printing process lives
------------------
     ethr =  8.13E-10,  avg # of iterations = 10.5

     negative rho (up, down):  2.602E-04 0.000E+00

     add environment contribution to local potential

     total cpu time spent up to now is      526.4 secs

     total energy              =    -300.71571533 Ry
     estimated scf accuracy    <       0.00000006 Ry

     total charge of GC-SCF    =       0.51586124 e
     the Fermi energy          =      -2.90063034 eV
                        (error :       0.00336966 eV)
     electrostatic embedding   =      -0.06574143 Ry
     cavitation energy         =       0.01593170 Ry
     electrolyte free energy   =      -0.00225038 Ry
     correction to one-el term =     -13.17212332 Ry

     iteration # 21     ecut=    80.00 Ry     beta= 0.20
     Davidson diagonalization with overlap

---- Real-time Memory Report at c_bands before calling an iterative solver
           267 MiB given to the printing process from OS
             0 MiB allocation reported by mallinfo(arena+hblkhd)
        222003 MiB available memory on the node where the printing process lives
------------------
     ethr =  9.71E-11,  avg # of iterations = 21.7

     negative rho (up, down):  2.416E-04 0.000E+00

     total cpu time spent up to now is      549.5 secs

     End of self-consistent calculation

          k = 0.0000 0.0000 0.0000 (152015 PWs)   bands (ev):

   -50.5145 -50.5141 -50.5131 -50.5127 -49.8409 -49.8405 -49.8394 -49.8390
   -49.4908 -49.4892 -49.4878 -49.4871 -49.4357 -49.4323 -49.4307 -49.4301
   -49.4290 -49.4287 -49.4279 -49.4242  -6.2956  -5.7831  -4.9460  -3.8718
    -3.6629  -3.6534  -3.1872  -3.1776  -2.7199  -2.6771  -2.6097  -2.5933
    -2.4611  -2.3296  -2.2202  -1.9098  -1.8064  -1.6056  -1.5601  -1.3027
    -1.1091  -0.3130  -0.1546  -0.1258  -0.1242

     occupation numbers 
     1.0000   1.0000   1.0000   1.0000   1.0000   1.0000   1.0000   1.0000
     1.0000   1.0000   1.0000   1.0000   1.0000   1.0000   1.0000   1.0000
     1.0000   1.0000   1.0000   1.0000   1.0000   1.0000   1.0000   1.0000
     1.0000   1.0000   1.0341   1.0400   0.0076   0.0018   0.0001   0.0001
     0.0000   0.0000   0.0000   0.0000   0.0000   0.0000   0.0000   0.0000
     0.0000   0.0000   0.0000   0.0000   0.0000

          k = 0.0000 0.1054 0.0000 (152006 PWs)   bands (ev):

   -50.5145 -50.5141 -50.5131 -50.5127 -49.8409 -49.8405 -49.8394 -49.8390
   -49.4908 -49.4891 -49.4878 -49.4871 -49.4358 -49.4324 -49.4307 -49.4301
   -49.4289 -49.4287 -49.4279 -49.4242  -6.2691  -5.7564  -4.9194  -3.8467
    -3.7794  -3.4923  -3.2992  -3.1006  -3.0192  -2.7335  -2.6853  -2.6584
    -2.5538  -2.2095  -2.1976  -2.0234  -1.7751  -1.6180  -1.5023  -1.1172
    -0.9880  -0.2866  -0.1169  -0.1105  -0.0891

     occupation numbers 
     1.0000   1.0000   1.0000   1.0000   1.0000   1.0000   1.0000   1.0000
     1.0000   1.0000   1.0000   1.0000   1.0000   1.0000   1.0000   1.0000
     1.0000   1.0000   1.0000   1.0000   1.0000   1.0000   1.0000   1.0000
     1.0000   1.0000   1.0022   1.0830   0.9710   0.0115   0.0025   0.0009
     0.0000   0.0000   0.0000   0.0000   0.0000   0.0000   0.0000   0.0000
     0.0000   0.0000   0.0000   0.0000   0.0000

          k = 0.0000 0.2108 0.0000 (151950 PWs)   bands (ev):

   -50.5145 -50.5141 -50.5131 -50.5127 -49.8409 -49.8405 -49.8394 -49.8390
   -49.4907 -49.4891 -49.4878 -49.4871 -49.4359 -49.4325 -49.4307 -49.4301
   -49.4288 -49.4287 -49.4279 -49.4241  -6.1895  -5.6764  -4.8396  -3.8528
    -3.7809  -3.6204  -3.3794  -3.2747  -3.1590  -2.8291  -2.7633  -2.6932
    -2.6256  -2.4033  -2.2901  -2.1705  -1.7029  -1.6220  -1.3027  -0.9095
    -0.7398  -0.2022  -0.0696   0.0010   0.0194

     occupation numbers 
     1.0000   1.0000   1.0000   1.0000   1.0000   1.0000   1.0000   1.0000
     1.0000   1.0000   1.0000   1.0000   1.0000   1.0000   1.0000   1.0000
     1.0000   1.0000   1.0000   1.0000   1.0000   1.0000   1.0000   1.0000
     1.0000   1.0000   1.0001   1.0046   1.0525   0.1208   0.0265   0.0032
     0.0003   0.0000   0.0000   0.0000   0.0000   0.0000   0.0000   0.0000
     0.0000   0.0000   0.0000   0.0000   0.0000

          k = 0.0000 0.3162 0.0000 (151992 PWs)   bands (ev):

   -50.5145 -50.5141 -50.5131 -50.5127 -49.8409 -49.8405 -49.8394 -49.8390
   -49.4906 -49.4891 -49.4878 -49.4871 -49.4362 -49.4326 -49.4307 -49.4301
   -49.4287 -49.4287 -49.4279 -49.4241  -6.0567  -5.5432  -4.7081  -4.1366
    -3.8774  -3.6684  -3.5942  -3.3999  -3.0526  -3.0211  -2.8278  -2.7070
    -2.5639  -2.5542  -2.4903  -2.1537  -1.7903  -1.6199  -1.2469  -0.8417
    -0.5846  -0.0448   0.0123   0.1828   0.2041

     occupation numbers 
     1.0000   1.0000   1.0000   1.0000   1.0000   1.0000   1.0000   1.0000
     1.0000   1.0000   1.0000   1.0000   1.0000   1.0000   1.0000   1.0000
     1.0000   1.0000   1.0000   1.0000   1.0000   1.0000   1.0000   1.0000
     1.0000   1.0000   1.0000   1.0001   1.0517   0.9771   0.1176   0.0051
     0.0000   0.0000   0.0000   0.0000   0.0000   0.0000   0.0000   0.0000
     0.0000   0.0000   0.0000   0.0000   0.0000

          k = 0.0000 0.4216 0.0000 (151948 PWs)   bands (ev):

   -50.5145 -50.5141 -50.5131 -50.5127 -49.8409 -49.8405 -49.8394 -49.8390
   -49.4905 -49.4890 -49.4878 -49.4871 -49.4364 -49.4328 -49.4307 -49.4301
   -49.4287 -49.4285 -49.4279 -49.4240  -5.8705  -5.3573  -4.5904  -4.5262
    -4.0585  -3.8528  -3.4951  -3.3796  -3.2745  -3.1867  -2.8300  -2.7643
    -2.6935  -2.4448  -2.2895  -2.1692  -1.9624  -1.6215  -1.2071  -0.9087
    -0.6707  -0.0695   0.0878   0.2309   0.4281

     occupation numbers 
     1.0000   1.0000   1.0000   1.0000   1.0000   1.0000   1.0000   1.0000
     1.0000   1.0000   1.0000   1.0000   1.0000   1.0000   1.0000   1.0000
     1.0000   1.0000   1.0000   1.0000   1.0000   1.0000   1.0000   1.0000
     1.0000   1.0000   1.0000   1.0001   1.0046   1.0344   0.1228   0.0271
     0.0032   0.0000   0.0000   0.0000   0.0000   0.0000   0.0000   0.0000
     0.0000   0.0000   0.0000   0.0000   0.0000

          k = 0.0000 0.5270 0.0000 (152033 PWs)   bands (ev):

   -50.5145 -50.5141 -50.5131 -50.5127 -49.8409 -49.8405 -49.8394 -49.8390
   -49.4904 -49.4890 -49.4878 -49.4871 -49.4366 -49.4329 -49.4307 -49.4301
   -49.4287 -49.4284 -49.4279 -49.4239  -5.6308  -5.1255  -4.9795  -4.5040
    -4.2404  -3.7794  -3.6566  -3.4922  -3.2995  -3.1857  -3.0199  -2.6863
    -2.5973  -2.5551  -2.2079  -2.0226  -1.9487  -1.6164  -1.2662  -1.1156
    -0.7146  -0.1105  -0.0102   0.3263   0.4221

     occupation numbers 
     1.0000   1.0000   1.0000   1.0000   1.0000   1.0000   1.0000   1.0000
     1.0000   1.0000   1.0000   1.0000   1.0000   1.0000   1.0000   1.0000
     1.0000   1.0000   1.0000   1.0000   1.0000   1.0000   1.0000   1.0000
     1.0000   1.0000   1.0000   1.0000   1.0022   1.0350   0.9732   0.0025
     0.0001   0.0000   0.0000   0.0000   0.0000   0.0000   0.0000   0.0000
     0.0000   0.0000   0.0000   0.0000   0.0000

          k = 0.0000-0.6325 0.0000 (151994 PWs)   bands (ev):

   -50.5145 -50.5141 -50.5131 -50.5127 -49.8409 -49.8405 -49.8394 -49.8390
   -49.4903 -49.4890 -49.4878 -49.4871 -49.4367 -49.4329 -49.4307 -49.4301
   -49.4287 -49.4284 -49.4279 -49.4239  -5.3438  -5.3328  -4.8360  -4.8118
    -4.0111  -3.9409  -3.6630  -3.6532  -3.1869  -3.1788  -3.0355  -2.7702
    -2.6784  -2.4627  -2.2182  -1.9097  -1.8776  -1.5575  -1.3523  -1.3009
    -0.6843  -0.1259  -0.0376   0.2314   0.4045

     occupation numbers 
     1.0000   1.0000   1.0000   1.0000   1.0000   1.0000   1.0000   1.0000
     1.0000   1.0000   1.0000   1.0000   1.0000   1.0000   1.0000   1.0000
     1.0000   1.0000   1.0000   1.0000   1.0000   1.0000   1.0000   1.0000
     1.0000   1.0000   1.0000   1.0000   1.0343   1.0392   1.0173   0.0317
     0.0019   0.0000   0.0000   0.0000   0.0000   0.0000   0.0000   0.0000
     0.0000   0.0000   0.0000   0.0000   0.0000

          k = 0.1000 0.0316 0.0000 (152067 PWs)   bands (ev):

   -50.5144 -50.5140 -50.5131 -50.5127 -49.8408 -49.8405 -49.8394 -49.8390
   -49.4908 -49.4891 -49.4879 -49.4871 -49.4356 -49.4323 -49.4310 -49.4302
   -49.4290 -49.4287 -49.4276 -49.4243  -6.2694  -5.7566  -4.9193  -4.1570
    -3.8450  -3.6601  -3.1106  -2.9211  -2.7256  -2.6975  -2.6685  -2.5099
    -2.4893  -2.2827  -2.1204  -1.9392  -1.7780  -1.5723  -1.5188  -1.2816
    -1.0707  -0.2876  -0.1311  -0.1198  -0.0902

     occupation numbers 
     1.0000   1.0000   1.0000   1.0000   1.0000   1.0000   1.0000   1.0000
     1.0000   1.0000   1.0000   1.0000   1.0000   1.0000   1.0000   1.0000
     1.0000   1.0000   1.0000   1.0000   1.0000   1.0000   1.0000   1.0000
     1.0000   1.0000   1.0808   0.4927   0.0091   0.0037   0.0014   0.0000
     0.0000   0.0000   0.0000   0.0000   0.0000   0.0000   0.0000   0.0000
     0.0000   0.0000   0.0000   0.0000   0.0000

          k = 0.1000 0.1370 0.0000 (152026 PWs)   bands (ev):

   -50.5144 -50.5140 -50.5131 -50.5127 -49.8408 -49.8405 -49.8394 -49.8390
   -49.4907 -49.4891 -49.4879 -49.4871 -49.4357 -49.4323 -49.4311 -49.4302
   -49.4289 -49.4288 -49.4275 -49.4242  -6.2270  -5.7140  -4.8766  -4.2677
    -3.8051  -3.7708  -3.2363  -3.0147  -2.9393  -2.8163  -2.6332  -2.5630
    -2.3843  -2.1937  -2.1255  -1.8669  -1.7158  -1.5054  -1.4158  -1.0639
    -0.8927  -0.2451  -0.1306  -0.0594  -0.0339

     occupation numbers 
     1.0000   1.0000   1.0000   1.0000   1.0000   1.0000   1.0000   1.0000
     1.0000   1.0000   1.0000   1.0000   1.0000   1.0000   1.0000   1.0000
     1.0000   1.0000   1.0000   1.0000   1.0000   1.0000   1.0000   1.0000
     1.0000   1.0000   1.0124   0.9559   0.5925   0.0930   0.0004   0.0000
     0.0000   0.0000   0.0000   0.0000   0.0000   0.0000   0.0000   0.0000
     0.0000   0.0000   0.0000   0.0000   0.0000

          k = 0.1000 0.2424 0.0000 (151998 PWs)   bands (ev):

   -50.5144 -50.5140 -50.5131 -50.5127 -49.8408 -49.8405 -49.8394 -49.8390
   -49.4906 -49.4890 -49.4879 -49.4872 -49.4359 -49.4325 -49.4311 -49.4302
   -49.4288 -49.4288 -49.4274 -49.4242  -6.1314  -5.6180  -4.7811  -4.3283
    -3.8314  -3.7897  -3.6853  -3.2740  -3.0636  -2.7456  -2.6002  -2.4772
    -2.4570  -2.4127  -2.1397  -1.9844  -1.6805  -1.3972  -1.2494  -0.7947
    -0.6402  -0.1346  -0.1110   0.0806   0.0962

     occupation numbers 
     1.0000   1.0000   1.0000   1.0000   1.0000   1.0000   1.0000   1.0000
     1.0000   1.0000   1.0000   1.0000   1.0000   1.0000   1.0000   1.0000
     1.0000   1.0000   1.0000   1.0000   1.0000   1.0000   1.0000   1.0000
     1.0000   1.0000   1.0000   1.0047   1.0666   0.0163   0.0001   0.0000
     0.0000   0.0000   0.0000   0.0000   0.0000   0.0000   0.0000   0.0000
     0.0000   0.0000   0.0000   0.0000   0.0000

          k = 0.1000 0.3479 0.0000 (151987 PWs)   bands (ev):

   -50.5144 -50.5140 -50.5131 -50.5127 -49.8408 -49.8405 -49.8394 -49.8390
   -49.4905 -49.4890 -49.4879 -49.4872 -49.4362 -49.4326 -49.4311 -49.4302
   -49.4288 -49.4286 -49.4274 -49.4241  -5.9826  -5.4689  -4.6346  -4.3384
    -4.2523  -3.8416  -3.7441  -3.5600  -3.0722  -2.9153  -2.6653  -2.5434
    -2.4391  -2.3703  -2.1589  -2.0104  -1.8195  -1.3699  -1.2084  -0.7343
    -0.5668  -0.1026   0.1079   0.1780   0.2533

     occupation numbers 
     1.0000   1.0000   1.0000   1.0000   1.0000   1.0000   1.0000   1.0000
     1.0000   1.0000   1.0000   1.0000   1.0000   1.0000   1.0000   1.0000
     1.0000   1.0000   1.0000   1.0000   1.0000   1.0000   1.0000   1.0000
     1.0000   1.0000   1.0000   1.0000   1.0747   0.4612   0.0012   0.0000
     0.0000   0.0000   0.0000   0.0000   0.0000   0.0000   0.0000   0.0000
     0.0000   0.0000   0.0000   0.0000   0.0000

          k = 0.1000 0.4533 0.0000 (151932 PWs)   bands (ev):

   -50.5144 -50.5140 -50.5131 -50.5127 -49.8408 -49.8405 -49.8394 -49.8390
   -49.4904 -49.4890 -49.4879 -49.4872 -49.4364 -49.4328 -49.4311 -49.4302
   -49.4288 -49.4285 -49.4274 -49.4240  -5.7804  -5.2674  -4.6886  -4.4497
    -4.2980  -4.1459  -3.8012  -3.4645  -3.2214  -3.0388  -2.8647  -2.5053
    -2.4384  -2.4022  -2.1241  -1.9594  -1.9108  -1.4628  -1.1835  -0.9438
    -0.6742  -0.1238   0.0364   0.3176   0.3485

     occupation numbers 
     1.0000   1.0000   1.0000   1.0000   1.0000   1.0000   1.0000   1.0000
     1.0000   1.0000   1.0000   1.0000   1.0000   1.0000   1.0000   1.0000
     1.0000   1.0000   1.0000   1.0000   1.0000   1.0000   1.0000   1.0000
     1.0000   1.0000   1.0000   1.0000   1.0174   1.0251   0.2291   0.0000
     0.0000   0.0000   0.0000   0.0000   0.0000   0.0000   0.0000   0.0000
     0.0000   0.0000   0.0000   0.0000   0.0000

          k = 0.1000 0.5587 0.0000 (151966 PWs)   bands (ev):

   -50.5144 -50.5140 -50.5131 -50.5127 -49.8408 -49.8405 -49.8394 -49.8390
   -49.4903 -49.4889 -49.4879 -49.4871 -49.4365 -49.4329 -49.4310 -49.4302
   -49.4288 -49.4284 -49.4275 -49.4240  -5.5248  -5.0902  -4.9950  -4.5737
    -4.2072  -4.1500  -3.7272  -3.7105  -3.1017  -3.0489  -2.9611  -2.6478
    -2.6395  -2.4244  -2.1213  -1.8942  -1.8750  -1.5141  -1.2796  -1.2250
    -0.6776  -0.1317  -0.0597   0.3090   0.3771

     occupation numbers 
     1.0000   1.0000   1.0000   1.0000   1.0000   1.0000   1.0000   1.0000
     1.0000   1.0000   1.0000   1.0000   1.0000   1.0000   1.0000   1.0000
     1.0000   1.0000   1.0000   1.0000   1.0000   1.0000   1.0000   1.0000
     1.0000   1.0000   1.0000   1.0000   1.0829   1.0454   0.7117   0.0006
     0.0004   0.0000   0.0000   0.0000   0.0000   0.0000   0.0000   0.0000
     0.0000   0.0000   0.0000   0.0000   0.0000

          k = 0.1000-0.6008 0.0000 (151997 PWs)   bands (ev):

   -50.5144 -50.5140 -50.5131 -50.5127 -49.8408 -49.8405 -49.8394 -49.8390
   -49.4903 -49.4889 -49.4879 -49.4871 -49.4365 -49.4329 -49.4310 -49.4302
   -49.4287 -49.4284 -49.4277 -49.4240  -5.4079  -5.2173  -4.8910  -4.7038
    -4.0668  -4.0459  -3.8517  -3.5704  -3.1919  -3.0312  -2.8591  -2.7574
    -2.7196  -2.6329  -2.1367  -2.0691  -1.8611  -1.6015  -1.3192  -1.2347
    -0.6623  -0.1630  -0.0633   0.2644   0.4309

     occupation numbers 
     1.0000   1.0000   1.0000   1.0000   1.0000   1.0000   1.0000   1.0000
     1.0000   1.0000   1.0000   1.0000   1.0000   1.0000   1.0000   1.0000
     1.0000   1.0000   1.0000   1.0000   1.0000   1.0000   1.0000   1.0000
     1.0000   1.0000   1.0000   1.0000   1.0314   1.0064   0.2089   0.0226
     0.0075   0.0003   0.0000   0.0000   0.0000   0.0000   0.0000   0.0000
     0.0000   0.0000   0.0000   0.0000   0.0000

          k = 0.1000-0.4954 0.0000 (151985 PWs)   bands (ev):

   -50.5144 -50.5140 -50.5131 -50.5127 -49.8408 -49.8405 -49.8394 -49.8390
   -49.4903 -49.4890 -49.4878 -49.4871 -49.4364 -49.4328 -49.4310 -49.4302
   -49.4285 -49.4285 -49.4279 -49.4240  -5.6845  -5.1734  -4.8466  -4.4179
    -4.2407  -3.8782  -3.5409  -3.3868  -3.2890  -3.2088  -2.9426  -2.8555
    -2.6869  -2.5039  -2.4045  -2.1386  -1.9501  -1.7742  -1.2088  -1.0950
    -0.6921  -0.2627   0.0966   0.3689   0.4840

     occupation numbers 
     1.0000   1.0000   1.0000   1.0000   1.0000   1.0000   1.0000   1.0000
     1.0000   1.0000   1.0000   1.0000   1.0000   1.0000   1.0000   1.0000
     1.0000   1.0000   1.0000   1.0000   1.0000   1.0000   1.0000   1.0000
     1.0000   1.0000   1.0000   1.0001   1.0030   1.0227   0.6105   0.1965
     0.0026   0.0000   0.0000   0.0000   0.0000   0.0000   0.0000   0.0000
     0.0000   0.0000   0.0000   0.0000   0.0000

          k = 0.1000-0.3900 0.0000 (151942 PWs)   bands (ev):

   -50.5144 -50.5140 -50.5131 -50.5127 -49.8408 -49.8405 -49.8394 -49.8390
   -49.4904 -49.4890 -49.4878 -49.4871 -49.4363 -49.4327 -49.4309 -49.4302
   -49.4286 -49.4284 -49.4281 -49.4241  -5.9081  -5.3945  -4.5644  -4.4310
    -3.9124  -3.6445  -3.5053  -3.3557  -3.2598  -3.1258  -3.0635  -2.9060
    -2.7389  -2.5021  -2.4160  -2.2411  -1.8955  -1.8790  -1.1901  -1.0054
    -0.6079  -0.3523   0.1946   0.2720   0.3797

     occupation numbers 
     1.0000   1.0000   1.0000   1.0000   1.0000   1.0000   1.0000   1.0000
     1.0000   1.0000   1.0000   1.0000   1.0000   1.0000   1.0000   1.0000
     1.0000   1.0000   1.0000   1.0000   1.0000   1.0000   1.0000   1.0000
     1.0000   1.0000   1.0000   1.0003   1.0069   1.0741   1.0666   0.4132
     0.0135   0.0000   0.0000   0.0000   0.0000   0.0000   0.0000   0.0000
     0.0000   0.0000   0.0000   0.0000   0.0000

          k = 0.1000-0.2846 0.0000 (151938 PWs)   bands (ev):

   -50.5144 -50.5140 -50.5131 -50.5127 -49.8408 -49.8405 -49.8394 -49.8390
   -49.4905 -49.4890 -49.4878 -49.4871 -49.4360 -49.4325 -49.4309 -49.4302
   -49.4287 -49.4283 -49.4282 -49.4241  -6.0783  -5.5647  -4.7283  -3.9704
    -3.6577  -3.5402  -3.4573  -3.3741  -3.3609  -3.0267  -2.9146  -2.8561
    -2.6920  -2.4821  -2.4406  -2.2965  -1.8954  -1.7169  -1.2320  -0.9890
    -0.5721  -0.3709  -0.0431   0.1530   0.1693

     occupation numbers 
     1.0000   1.0000   1.0000   1.0000   1.0000   1.0000   1.0000   1.0000
     1.0000   1.0000   1.0000   1.0000   1.0000   1.0000   1.0000   1.0000
     1.0000   1.0000   1.0000   1.0000   1.0000   1.0000   1.0000   1.0000
     1.0000   1.0000   1.0000   1.0002   1.0003   0.9938   0.4576   0.1984
     0.0031   0.0000   0.0000   0.0000   0.0000   0.0000   0.0000   0.0000
     0.0000   0.0000   0.0000   0.0000   0.0000

          k = 0.1000-0.1792 0.0000 (151999 PWs)   bands (ev):

   -50.5144 -50.5140 -50.5131 -50.5127 -49.8408 -49.8405 -49.8394 -49.8390
   -49.4907 -49.4891 -49.4878 -49.4871 -49.4358 -49.4324 -49.4310 -49.4302
   -49.4289 -49.4285 -49.4280 -49.4242  -6.1951  -5.6820  -4.8447  -3.7900
    -3.7769  -3.4470  -3.3378  -3.2795  -3.0591  -2.9941  -2.8813  -2.6343
    -2.6139  -2.5195  -2.2854  -2.1730  -1.8273  -1.6828  -1.3266  -1.0525
    -0.7929  -0.3029  -0.2141  -0.0112   0.0093

     occupation numbers 
     1.0000   1.0000   1.0000   1.0000   1.0000   1.0000   1.0000   1.0000
     1.0000   1.0000   1.0000   1.0000   1.0000   1.0000   1.0000   1.0000
     1.0000   1.0000   1.0000   1.0000   1.0000   1.0000   1.0000   1.0000
     1.0000   1.0000   1.0006   1.0040   1.0612   0.8749   0.2960   0.0004
     0.0002   0.0000   0.0000   0.0000   0.0000   0.0000   0.0000   0.0000
     0.0000   0.0000   0.0000   0.0000   0.0000

          k = 0.1000-0.0738 0.0000 (152043 PWs)   bands (ev):

   -50.5144 -50.5140 -50.5131 -50.5127 -49.8408 -49.8405 -49.8394 -49.8390
   -49.4907 -49.4891 -49.4878 -49.4871 -49.4356 -49.4323 -49.4310 -49.4302
   -49.4289 -49.4286 -49.4278 -49.4243  -6.2588  -5.7460  -4.9086  -3.9971
    -3.8349  -3.5009  -3.2374  -2.9171  -2.8417  -2.7604  -2.7416  -2.6774
    -2.5669  -2.2228  -2.1989  -2.1090  -1.7688  -1.6767  -1.5296  -1.1771
    -1.0209  -0.2778  -0.2004  -0.1047  -0.0763

     occupation numbers 
     1.0000   1.0000   1.0000   1.0000   1.0000   1.0000   1.0000   1.0000
     1.0000   1.0000   1.0000   1.0000   1.0000   1.0000   1.0000   1.0000
     1.0000   1.0000   1.0000   1.0000   1.0000   1.0000   1.0000   1.0000
     1.0000   1.0000   1.0121   0.4712   0.1536   0.0245   0.0145   0.0019
     0.0000   0.0000   0.0000   0.0000   0.0000   0.0000   0.0000   0.0000
     0.0000   0.0000   0.0000   0.0000   0.0000

          k = 0.2000 0.0632 0.0000 (151969 PWs)   bands (ev):

   -50.5143 -50.5139 -50.5132 -50.5128 -49.8407 -49.8404 -49.8395 -49.8391
   -49.4905 -49.4890 -49.4881 -49.4873 -49.4354 -49.4321 -49.4317 -49.4304
   -49.4289 -49.4287 -49.4270 -49.4244  -6.1906  -5.6773  -4.8391  -4.6061
    -4.0978  -3.7649  -3.2966  -2.7903  -2.5996  -2.5853  -2.5208  -2.4577
    -2.4538  -2.1426  -2.0344  -1.9648  -1.6918  -1.4763  -1.3361  -1.2555
    -0.9591  -0.2687  -0.2158  -0.1822  -0.0160

     occupation numbers 
     1.0000   1.0000   1.0000   1.0000   1.0000   1.0000   1.0000   1.0000
     1.0000   1.0000   1.0000   1.0000   1.0000   1.0000   1.0000   1.0000
     1.0000   1.0000   1.0000   1.0000   1.0000   1.0000   1.0000   1.0000
     1.0000   1.0000   1.0024   0.0520   0.0001   0.0000   0.0000   0.0000
     0.0000   0.0000   0.0000   0.0000   0.0000   0.0000   0.0000   0.0000
     0.0000   0.0000   0.0000   0.0000   0.0000

          k = 0.2000 0.1687 0.0000 (151968 PWs)   bands (ev):

   -50.5143 -50.5139 -50.5132 -50.5128 -49.8407 -49.8404 -49.8395 -49.8391
   -49.4905 -49.4889 -49.4881 -49.4873 -49.4355 -49.4322 -49.4318 -49.4304
   -49.4288 -49.4287 -49.4269 -49.4243  -6.1323  -5.6186  -4.7804  -4.7038
    -4.1964  -3.7110  -3.3911  -3.3236  -2.8719  -2.5401  -2.4952  -2.3769
    -2.2711  -2.1726  -1.9246  -1.7413  -1.6028  -1.3708  -1.2769  -0.9656
    -0.7460  -0.3173  -0.1627  -0.1044   0.0677

     occupation numbers 
     1.0000   1.0000   1.0000   1.0000   1.0000   1.0000   1.0000   1.0000
     1.0000   1.0000   1.0000   1.0000   1.0000   1.0000   1.0000   1.0000
     1.0000   1.0000   1.0000   1.0000   1.0000   1.0000   1.0000   1.0000
     1.0000   1.0000   1.0001   1.0010   0.2569   0.0000   0.0000   0.0000
     0.0000   0.0000   0.0000   0.0000   0.0000   0.0000   0.0000   0.0000
     0.0000   0.0000   0.0000   0.0000   0.0000

          k = 0.2000 0.2741 0.0000 (152020 PWs)   bands (ev):

   -50.5143 -50.5139 -50.5132 -50.5128 -49.8407 -49.8404 -49.8395 -49.8391
   -49.4904 -49.4889 -49.4881 -49.4873 -49.4357 -49.4324 -49.4318 -49.4304
   -49.4288 -49.4287 -49.4268 -49.4243  -6.0208  -5.5066  -4.7501  -4.6691
    -4.2432  -3.8520  -3.5943  -3.4360  -3.3380  -2.5786  -2.5122  -2.4036
    -2.2346  -2.1563  -1.8591  -1.7166  -1.6198  -1.2816  -1.1599  -0.7216
    -0.5018  -0.4707  -0.0170   0.0573   0.2279

     occupation numbers 
     1.0000   1.0000   1.0000   1.0000   1.0000   1.0000   1.0000   1.0000
     1.0000   1.0000   1.0000   1.0000   1.0000   1.0000   1.0000   1.0000
     1.0000   1.0000   1.0000   1.0000   1.0000   1.0000   1.0000   1.0000
     1.0000   1.0000   1.0000   1.0000   1.0006   0.0000   0.0000   0.0000
     0.0000   0.0000   0.0000   0.0000   0.0000   0.0000   0.0000   0.0000
     0.0000   0.0000   0.0000   0.0000   0.0000

          k = 0.2000 0.3795 0.0000 (151962 PWs)   bands (ev):

   -50.5143 -50.5139 -50.5132 -50.5128 -49.8407 -49.8404 -49.8395 -49.8391
   -49.4902 -49.4889 -49.4881 -49.4873 -49.4360 -49.4325 -49.4318 -49.4304
   -49.4288 -49.4286 -49.4268 -49.4242  -5.8561  -5.3416  -4.7450  -4.5088
    -4.3166  -4.2381  -3.7974  -3.4447  -3.4311  -2.9489  -2.5103  -2.3353
    -2.2572  -2.1651  -1.8662  -1.8034  -1.7127  -1.3009  -1.1193  -0.7579
    -0.5147  -0.4404   0.0242   0.2476   0.2888

     occupation numbers 
     1.0000   1.0000   1.0000   1.0000   1.0000   1.0000   1.0000   1.0000
     1.0000   1.0000   1.0000   1.0000   1.0000   1.0000   1.0000   1.0000
     1.0000   1.0000   1.0000   1.0000   1.0000   1.0000   1.0000   1.0000
     1.0000   1.0000   1.0000   1.0000   1.0000   0.6457   0.0000   0.0000
     0.0000   0.0000   0.0000   0.0000   0.0000   0.0000   0.0000   0.0000
     0.0000   0.0000   0.0000   0.0000   0.0000

          k = 0.2000 0.4849 0.0000 (151925 PWs)   bands (ev):

   -50.5143 -50.5139 -50.5132 -50.5128 -49.8407 -49.8404 -49.8395 -49.8391
   -49.4901 -49.4888 -49.4881 -49.4873 -49.4361 -49.4326 -49.4318 -49.4304
   -49.4287 -49.4284 -49.4269 -49.4242  -5.6379  -5.1252  -4.7371  -4.6883
    -4.3419  -4.1809  -4.1559  -3.4391  -3.3763  -3.1432  -2.4915  -2.4093
    -2.3993  -2.3180  -1.9409  -1.8866  -1.7741  -1.3670  -1.1268  -1.0246
    -0.6161  -0.2924  -0.1312   0.3266   0.4173

     occupation numbers 
     1.0000   1.0000   1.0000   1.0000   1.0000   1.0000   1.0000   1.0000
     1.0000   1.0000   1.0000   1.0000   1.0000   1.0000   1.0000   1.0000
     1.0000   1.0000   1.0000   1.0000   1.0000   1.0000   1.0000   1.0000
     1.0000   1.0000   1.0000   1.0000   1.0001   1.0633   0.0000   0.0000
     0.0000   0.0000   0.0000   0.0000   0.0000   0.0000   0.0000   0.0000
     0.0000   0.0000   0.0000   0.0000   0.0000

          k = 0.2000 0.5903 0.0000 (151971 PWs)   bands (ev):

   -50.5143 -50.5139 -50.5132 -50.5128 -49.8407 -49.8404 -49.8395 -49.8391
   -49.4901 -49.4888 -49.4881 -49.4873 -49.4362 -49.4327 -49.4317 -49.4304
   -49.4287 -49.4284 -49.4270 -49.4242  -5.3667  -5.1132  -4.8471  -4.5990
    -4.5804  -4.0720  -3.9984  -3.7463  -3.2723  -2.9674  -2.6513  -2.6243
    -2.5517  -2.4523  -2.0902  -1.9865  -1.7931  -1.3809  -1.2567  -1.2448
    -0.5897  -0.2921  -0.1641   0.3355   0.3667

     occupation numbers 
     1.0000   1.0000   1.0000   1.0000   1.0000   1.0000   1.0000   1.0000
     1.0000   1.0000   1.0000   1.0000   1.0000   1.0000   1.0000   1.0000
     1.0000   1.0000   1.0000   1.0000   1.0000   1.0000   1.0000   1.0000
     1.0000   1.0000   1.0000   1.0000   1.0049   0.7454   0.0007   0.0002
     0.0000   0.0000   0.0000   0.0000   0.0000   0.0000   0.0000   0.0000
     0.0000   0.0000   0.0000   0.0000   0.0000

          k = 0.2000-0.5692 0.0000 (151945 PWs)   bands (ev):

   -50.5143 -50.5139 -50.5132 -50.5128 -49.8407 -49.8404 -49.8395 -49.8391
   -49.4901 -49.4888 -49.4880 -49.4873 -49.4362 -49.4327 -49.4317 -49.4304
   -49.4285 -49.4284 -49.4272 -49.4242  -5.4251  -5.0482  -4.9008  -4.5337
    -4.4216  -4.0509  -3.9118  -3.6837  -3.1230  -3.0129  -3.0041  -2.6764
    -2.5823  -2.4964  -2.3873  -2.0162  -1.8109  -1.7308  -1.2235  -1.1907
    -0.5980  -0.4426  -0.0277   0.3596   0.5089

     occupation numbers 
     1.0000   1.0000   1.0000   1.0000   1.0000   1.0000   1.0000   1.0000
     1.0000   1.0000   1.0000   1.0000   1.0000   1.0000   1.0000   1.0000
     1.0000   1.0000   1.0000   1.0000   1.0000   1.0000   1.0000   1.0000
     1.0000   1.0000   1.0000   1.0000   1.0755   0.9495   0.9164   0.0018
     0.0000   0.0000   0.0000   0.0000   0.0000   0.0000   0.0000   0.0000
     0.0000   0.0000   0.0000   0.0000   0.0000

          k = 0.2000-0.4638 0.0000 (151886 PWs)   bands (ev):

   -50.5143 -50.5139 -50.5132 -50.5128 -49.8407 -49.8404 -49.8395 -49.8391
   -49.4902 -49.4888 -49.4880 -49.4873 -49.4361 -49.4326 -49.4316 -49.4304
   -49.4285 -49.4284 -49.4274 -49.4242  -5.6858  -5.1722  -4.6582  -4.3605
    -4.2130  -4.1058  -3.7032  -3.3997  -3.3772  -3.1508  -2.9571  -2.8070
    -2.7510  -2.4113  -2.3652  -2.0832  -1.9922  -1.8921  -1.1733  -1.1131
    -0.6066  -0.5802   0.1505   0.4121   0.6219

     occupation numbers 
     1.0000   1.0000   1.0000   1.0000   1.0000   1.0000   1.0000   1.0000
     1.0000   1.0000   1.0000   1.0000   1.0000   1.0000   1.0000   1.0000
     1.0000   1.0000   1.0000   1.0000   1.0000   1.0000   1.0000   1.0000
     1.0000   1.0000   1.0000   1.0001   1.0001   1.0581   0.6904   0.0762
     0.0190   0.0000   0.0000   0.0000   0.0000   0.0000   0.0000   0.0000
     0.0000   0.0000   0.0000   0.0000   0.0000

          k = 0.2000-0.3584 0.0000 (151888 PWs)   bands (ev):

   -50.5143 -50.5139 -50.5132 -50.5128 -49.8407 -49.8404 -49.8395 -49.8391
   -49.4903 -49.4889 -49.4880 -49.4873 -49.4359 -49.4325 -49.4316 -49.4305
   -49.4286 -49.4283 -49.4276 -49.4242  -5.8933  -5.3788  -4.5442  -4.2273
    -3.9566  -3.7202  -3.7129  -3.4726  -3.4347  -3.1983  -2.8740  -2.7951
    -2.6585  -2.4257  -2.3874  -2.3482  -1.9631  -1.7625  -1.1834  -1.1287
    -0.6554  -0.4916   0.2021   0.3475   0.3983

     occupation numbers 
     1.0000   1.0000   1.0000   1.0000   1.0000   1.0000   1.0000   1.0000
     1.0000   1.0000   1.0000   1.0000   1.0000   1.0000   1.0000   1.0000
     1.0000   1.0000   1.0000   1.0000   1.0000   1.0000   1.0000   1.0000
     1.0000   1.0000   1.0000   1.0000   1.0000   1.0279   0.2656   0.0582
     0.0009   0.0000   0.0000   0.0000   0.0000   0.0000   0.0000   0.0000
     0.0000   0.0000   0.0000   0.0000   0.0000

          k = 0.2000-0.2530 0.0000 (151943 PWs)   bands (ev):

   -50.5143 -50.5139 -50.5132 -50.5128 -49.8407 -49.8404 -49.8395 -49.8391
   -49.4904 -49.4889 -49.4880 -49.4873 -49.4357 -49.4323 -49.4316 -49.4305
   -49.4287 -49.4283 -49.4275 -49.4243  -6.0474  -5.5333  -4.6955  -4.0116
    -3.7592  -3.6596  -3.6108  -3.4867  -3.2459  -3.1366  -2.7906  -2.7044
    -2.5309  -2.4184  -2.3924  -2.3374  -1.9678  -1.6004  -1.1817  -1.1678
    -0.6468  -0.5399  -0.0636   0.1921   0.2021

     occupation numbers 
     1.0000   1.0000   1.0000   1.0000   1.0000   1.0000   1.0000   1.0000
     1.0000   1.0000   1.0000   1.0000   1.0000   1.0000   1.0000   1.0000
     1.0000   1.0000   1.0000   1.0000   1.0000   1.0000   1.0000   1.0000
     1.0000   1.0000   1.0000   1.0000   1.0099   1.0676   0.0524   0.0047
     0.0000   0.0000   0.0000   0.0000   0.0000   0.0000   0.0000   0.0000
     0.0000   0.0000   0.0000   0.0000   0.0000

          k = 0.2000-0.1476 0.0000 (151949 PWs)   bands (ev):

   -50.5143 -50.5139 -50.5132 -50.5128 -49.8407 -49.8404 -49.8395 -49.8391
   -49.4905 -49.4889 -49.4880 -49.4873 -49.4355 -49.4322 -49.4316 -49.4304
   -49.4289 -49.4284 -49.4274 -49.4243  -6.1482  -5.6346  -4.7964  -4.2587
    -3.7482  -3.7251  -3.3071  -3.2180  -2.9782  -2.7820  -2.7667  -2.7292
    -2.5500  -2.4090  -2.1256  -2.0193  -1.9972  -1.6205  -1.3245  -1.1739
    -0.7947  -0.5565  -0.1763   0.0432   0.0674

     occupation numbers 
     1.0000   1.0000   1.0000   1.0000   1.0000   1.0000   1.0000   1.0000
     1.0000   1.0000   1.0000   1.0000   1.0000   1.0000   1.0000   1.0000
     1.0000   1.0000   1.0000   1.0000   1.0000   1.0000   1.0000   1.0000
     1.0000   1.0000   1.0017   1.0188   0.8004   0.0426   0.0289   0.0101
     0.0000   0.0000   0.0000   0.0000   0.0000   0.0000   0.0000   0.0000
     0.0000   0.0000   0.0000   0.0000   0.0000

          k = 0.2000-0.0422 0.0000 (151969 PWs)   bands (ev):

   -50.5143 -50.5139 -50.5132 -50.5128 -49.8407 -49.8404 -49.8395 -49.8391
   -49.4905 -49.4890 -49.4880 -49.4873 -49.4354 -49.4321 -49.4317 -49.4304
   -49.4289 -49.4286 -49.4272 -49.4244  -6.1959  -5.6826  -4.8444  -4.4575
    -3.9478  -3.7699  -3.1551  -2.9392  -2.6901  -2.6542  -2.5980  -2.4608
    -2.4246  -2.3506  -2.1919  -2.0175  -1.6966  -1.6605  -1.4973  -1.2018
    -0.9832  -0.4118  -0.2202  -0.0603  -0.0234

     occupation numbers 
     1.0000   1.0000   1.0000   1.0000   1.0000   1.0000   1.0000   1.0000
     1.0000   1.0000   1.0000   1.0000   1.0000   1.0000   1.0000   1.0000
     1.0000   1.0000   1.0000   1.0000   1.0000   1.0000   1.0000   1.0000
     1.0000   1.0000   1.0551   0.5917   0.0029   0.0008   0.0001   0.0000
     0.0000   0.0000   0.0000   0.0000   0.0000   0.0000   0.0000   0.0000
     0.0000   0.0000   0.0000   0.0000   0.0000

          k = 0.3000 0.0949 0.0000 (151964 PWs)   bands (ev):

   -50.5142 -50.5138 -50.5134 -50.5130 -49.8406 -49.8402 -49.8397 -49.8393
   -49.4902 -49.4887 -49.4884 -49.4875 -49.4351 -49.4325 -49.4319 -49.4307
   -49.4288 -49.4286 -49.4263 -49.4246  -6.0592  -5.5450  -5.0030  -4.7058
    -4.4897  -3.6645  -3.6325  -2.8304  -2.7015  -2.6321  -2.4846  -2.4002
    -2.1283  -1.9551  -1.9381  -1.6866  -1.5440  -1.3283  -1.2954  -1.1482
    -0.7884  -0.3670  -0.2668  -0.1148   0.1524

     occupation numbers 
     1.0000   1.0000   1.0000   1.0000   1.0000   1.0000   1.0000   1.0000
     1.0000   1.0000   1.0000   1.0000   1.0000   1.0000   1.0000   1.0000
     1.0000   1.0000   1.0000   1.0000   1.0000   1.0000   1.0000   1.0000
     1.0000   1.0000   1.0000   0.1238   0.0042   0.0003   0.0000   0.0000
     0.0000   0.0000   0.0000   0.0000   0.0000   0.0000   0.0000   0.0000
     0.0000   0.0000   0.0000   0.0000   0.0000

          k = 0.3000 0.2003 0.0000 (152028 PWs)   bands (ev):

   -50.5142 -50.5138 -50.5134 -50.5130 -49.8406 -49.8402 -49.8397 -49.8393
   -49.4901 -49.4887 -49.4884 -49.4875 -49.4352 -49.4326 -49.4320 -49.4307
   -49.4287 -49.4287 -49.4262 -49.4245  -5.9850  -5.4703  -5.0864  -4.6311
    -4.5740  -3.7480  -3.5677  -3.3608  -2.8872  -2.7423  -2.3934  -2.2359
    -2.1212  -1.8465  -1.7583  -1.6727  -1.4453  -1.2400  -1.1004  -0.9335
    -0.5654  -0.5551  -0.0654  -0.0601   0.0895

     occupation numbers 
     1.0000   1.0000   1.0000   1.0000   1.0000   1.0000   1.0000   1.0000
     1.0000   1.0000   1.0000   1.0000   1.0000   1.0000   1.0000   1.0000
     1.0000   1.0000   1.0000   1.0000   1.0000   1.0000   1.0000   1.0000
     1.0000   1.0000   1.0000   1.0003   0.3221   0.0148   0.0000   0.0000
     0.0000   0.0000   0.0000   0.0000   0.0000   0.0000   0.0000   0.0000
     0.0000   0.0000   0.0000   0.0000   0.0000

          k = 0.3000 0.3057 0.0000 (152004 PWs)   bands (ev):

   -50.5142 -50.5138 -50.5134 -50.5130 -49.8406 -49.8402 -49.8397 -49.8393
   -49.4900 -49.4887 -49.4884 -49.4875 -49.4354 -49.4326 -49.4322 -49.4307
   -49.4287 -49.4286 -49.4262 -49.4245  -5.8577  -5.3423  -5.1176  -4.6056
    -4.5041  -3.8783  -3.7794  -3.4468  -3.3433  -2.7686  -2.5501  -2.2557
    -1.9233  -1.8509  -1.7493  -1.5280  -1.4909  -1.3134  -1.0319  -0.7829
    -0.7340  -0.3323   0.0303   0.1052   0.1903

     occupation numbers 
     1.0000   1.0000   1.0000   1.0000   1.0000   1.0000   1.0000   1.0000
     1.0000   1.0000   1.0000   1.0000   1.0000   1.0000   1.0000   1.0000
     1.0000   1.0000   1.0000   1.0000   1.0000   1.0000   1.0000   1.0000
     1.0000   1.0000   1.0000   1.0000   1.0005   0.0304   0.0000   0.0000
     0.0000   0.0000   0.0000   0.0000   0.0000   0.0000   0.0000   0.0000
     0.0000   0.0000   0.0000   0.0000   0.0000

          k = 0.3000 0.4111 0.0000 (151987 PWs)   bands (ev):

   -50.5142 -50.5138 -50.5134 -50.5130 -49.8406 -49.8402 -49.8397 -49.8393
   -49.4899 -49.4886 -49.4884 -49.4875 -49.4355 -49.4326 -49.4323 -49.4307
   -49.4287 -49.4285 -49.4262 -49.4245  -5.6771  -5.1615  -5.0968  -4.5845
    -4.3468  -4.3145  -3.8002  -3.7585  -3.2824  -2.9241  -2.7511  -2.1860
    -2.1601  -1.8308  -1.7410  -1.7401  -1.6345  -1.2562  -0.9903  -0.8850
    -0.6055  -0.4328  -0.0151   0.0927   0.4111

     occupation numbers 
     1.0000   1.0000   1.0000   1.0000   1.0000   1.0000   1.0000   1.0000
     1.0000   1.0000   1.0000   1.0000   1.0000   1.0000   1.0000   1.0000
     1.0000   1.0000   1.0000   1.0000   1.0000   1.0000   1.0000   1.0000
     1.0000   1.0000   1.0000   1.0000   1.0037   0.5086   0.0190   0.0000
     0.0000   0.0000   0.0000   0.0000   0.0000   0.0000   0.0000   0.0000
     0.0000   0.0000   0.0000   0.0000   0.0000

          k = 0.3000 0.5165 0.0000 (151948 PWs)   bands (ev):

   -50.5142 -50.5138 -50.5134 -50.5130 -49.8406 -49.8402 -49.8397 -49.8393
   -49.4898 -49.4886 -49.4884 -49.4875 -49.4357 -49.4326 -49.4324 -49.4307
   -49.4287 -49.4284 -49.4263 -49.4245  -5.4432  -5.0239  -4.9323  -4.7318
    -4.5108  -4.2587  -4.0357  -3.6854  -3.3994  -2.9744  -2.6970  -2.5674
    -2.3276  -2.0472  -1.9152  -1.7495  -1.6849  -1.2339  -1.1418  -1.0478
    -0.5074  -0.3436  -0.2811   0.1598   0.5273

     occupation numbers 
     1.0000   1.0000   1.0000   1.0000   1.0000   1.0000   1.0000   1.0000
     1.0000   1.0000   1.0000   1.0000   1.0000   1.0000   1.0000   1.0000
     1.0000   1.0000   1.0000   1.0000   1.0000   1.0000   1.0000   1.0000
     1.0000   1.0000   1.0000   1.0000   1.0001   0.7812   0.0037   0.0000
     0.0000   0.0000   0.0000   0.0000   0.0000   0.0000   0.0000   0.0000
     0.0000   0.0000   0.0000   0.0000   0.0000

          k = 0.3000 0.6219 0.0000 (151942 PWs)   bands (ev):

   -50.5142 -50.5138 -50.5134 -50.5130 -49.8406 -49.8402 -49.8397 -49.8393
   -49.4898 -49.4886 -49.4884 -49.4875 -49.4357 -49.4325 -49.4324 -49.4307
   -49.4286 -49.4283 -49.4264 -49.4245  -5.1571  -5.0925  -4.8989  -4.6395
    -4.5730  -4.3845  -3.8015  -3.7036  -3.5611  -3.0175  -2.8005  -2.5929
    -2.5382  -2.4534  -2.0254  -1.7219  -1.6549  -1.5865  -1.1624  -1.1269
    -0.6014  -0.4719  -0.0688   0.2860   0.3955

     occupation numbers 
     1.0000   1.0000   1.0000   1.0000   1.0000   1.0000   1.0000   1.0000
     1.0000   1.0000   1.0000   1.0000   1.0000   1.0000   1.0000   1.0000
     1.0000   1.0000   1.0000   1.0000   1.0000   1.0000   1.0000   1.0000
     1.0000   1.0000   1.0000   1.0000   1.0000   0.9653   0.0660   0.0001
     0.0000   0.0000   0.0000   0.0000   0.0000   0.0000   0.0000   0.0000
     0.0000   0.0000   0.0000   0.0000   0.0000

          k = 0.3000-0.5376 0.0000 (151892 PWs)   bands (ev):

   -50.5142 -50.5138 -50.5134 -50.5130 -49.8406 -49.8402 -49.8397 -49.8393
   -49.4898 -49.4886 -49.4883 -49.4875 -49.4357 -49.4325 -49.4324 -49.4308
   -49.4285 -49.4284 -49.4266 -49.4245  -5.3901  -4.8895  -4.7962  -4.7223
    -4.3161  -4.2064  -3.9998  -3.4627  -3.4389  -3.3838  -2.9365  -2.8869
[...]
     1.0000   1.0000   1.0000   1.0000   1.0000   1.0000   1.0000   1.0000
     1.0000   1.0000   1.0000   1.0000   1.0000   1.0000   1.0000   1.0000
     1.0000   1.0000   1.0000   1.0000   1.0000   1.0000   0.3072   0.3071
     0.0006   0.0006   0.0000   0.0000   0.0000   0.0000   0.0000   0.0000
     0.0000   0.0000   0.0000   0.0000   0.0000

     the Fermi energy is    -2.9040 ev

!    total energy              =    -300.71725690 Ry
     total all-electron energy =      -300.717419 Ry
     estimated scf accuracy    <          2.6E-13 Ry

!    total charge of GC-SCF    =       0.44682031 e
     smearing contrib. (-TS)   =      -0.00067914 Ry
     internal energy E=F+TS    =    -300.71657776 Ry

     The total energy is F=E-TS. E is the sum of the following terms:
     one-electron contribution =   -3429.80135042 Ry
     hartree contribution      =    1681.76055198 Ry
     xc contribution           =     -71.44137065 Ry
     ewald contribution        =    1528.85187287 Ry
     one-center paw contrib.   =       1.76478612 Ry
      -> PAW hartree energy AE =       7.39622766 Ry
      -> PAW hartree energy PS =      -7.17351741 Ry
      -> PAW xc energy AE      =      -3.47924696 Ry
      -> PAW xc energy PS      =       3.34476613 Ry
      -> total E_H with PAW    =    1681.98326223 Ry
      -> total E_XC with PAW   =     -71.57585147 Ry
     pot.stat. contrib. (-muN) =      -0.09536936 Ry
     electrostatic embedding   =      -0.05197330 Ry
     cavitation energy         =       0.01553868 Ry
     electrolyte free energy   =      -0.00198387 Ry
     correction to one-el term =     -11.71727982 Ry

     WARNING: you are using the parabolic pbc correction;
              the potential shift above must be added to 
              band and Fermi energies.

     convergence has been achieved in  16 iterations
     The dielectric solvent contribution to forces
     atom    1 type  1   force =    -0.00000062   -0.00495645   -0.01078853
     atom    2 type  1   force =    -0.00000022    0.00168407   -0.00823842
     atom    3 type  1   force =    -0.00000022   -0.00035809   -0.00598733
     atom    4 type  1   force =    -0.00000001   -0.00006789   -0.00146627
     atom    5 type  1   force =    -0.00000001    0.00006778    0.00139672
     atom    6 type  1   force =     0.00000024    0.00035819    0.00592453
     atom    7 type  1   force =     0.00000009   -0.00168338    0.00817522
     atom    8 type  1   force =     0.00000027    0.00495546    0.01073541
     atom    9 type  1   force =     0.00000011   -0.00566287    0.02007869
     atom   10 type  1   force =    -0.00000035    0.00566568   -0.02013657
     atom   11 type  1   force =    -0.00000024   -0.00495633   -0.01078867
     atom   12 type  1   force =    -0.00000010    0.00168411   -0.00823843
     atom   13 type  1   force =    -0.00000020   -0.00035808   -0.00598732
     atom   14 type  1   force =     0.00000002   -0.00006788   -0.00146629
     atom   15 type  1   force =     0.00000000    0.00006778    0.00139669
     atom   16 type  1   force =     0.00000019    0.00035814    0.00592448
     atom   17 type  1   force =     0.00000022   -0.00168334    0.00817520
     atom   18 type  1   force =     0.00000057    0.00495565    0.01073548
     atom   19 type  1   force =     0.00000053   -0.00566269    0.02007852
     atom   20 type  1   force =    -0.00000028    0.00566575   -0.02013678


     Forces acting on atoms (cartesian axes, Ry/au):

     atom    1 type  1   force =    -0.00000272   -0.00004253   -0.00003852
     atom    2 type  1   force =     0.00000045   -0.00003833    0.00013766
     atom    3 type  1   force =    -0.00000188    0.00030034    0.00011523
     atom    4 type  1   force =     0.00000022   -0.00006760   -0.00001146
     atom    5 type  1   force =    -0.00000019    0.00006930   -0.00001513
     atom    6 type  1   force =     0.00000210   -0.00030148   -0.00013243
     atom    7 type  1   force =    -0.00000112    0.00004092   -0.00013980
     atom    8 type  1   force =     0.00000236    0.00004252    0.00005319
     atom    9 type  1   force =    -0.00000261    0.00002550   -0.00000788
     atom   10 type  1   force =     0.00000264   -0.00002747    0.00003757
     atom   11 type  1   force =    -0.00000266   -0.00004274   -0.00003849
     atom   12 type  1   force =     0.00000090   -0.00003901    0.00013784
     atom   13 type  1   force =    -0.00000152    0.00030046    0.00011594
     atom   14 type  1   force =     0.00000022   -0.00006764   -0.00001182
     atom   15 type  1   force =    -0.00000013    0.00006926   -0.00001530
     atom   16 type  1   force =     0.00000126   -0.00030180   -0.00013275
     atom   17 type  1   force =    -0.00000022    0.00004015   -0.00013900
     atom   18 type  1   force =     0.00000274    0.00004244    0.00005303
     atom   19 type  1   force =    -0.00000273    0.00002540   -0.00000658
     atom   20 type  1   force =     0.00000289   -0.00002769    0.00003870
     The non-local contrib.  to forces
     atom    1 type  1   force =     0.00002606    0.00386644   -0.03613829
     atom    2 type  1   force =     0.00002946    0.00085896    0.00128755
     atom    3 type  1   force =     0.00003427    0.00170290   -0.00474806
     atom    4 type  1   force =     0.00002518   -0.00223610    0.00096121
     atom    5 type  1   force =    -0.00002489    0.00224426   -0.00102378
     atom    6 type  1   force =    -0.00003389   -0.00170578    0.00472075
     atom    7 type  1   force =    -0.00003067   -0.00086024   -0.00129078
     atom    8 type  1   force =    -0.00002668   -0.00387405    0.03619629
     atom    9 type  1   force =    -0.00002702   -0.00002694    0.08970928
     atom   10 type  1   force =     0.00002626    0.00003730   -0.08968401
     atom   11 type  1   force =     0.00002660    0.00386706   -0.03613828
     atom   12 type  1   force =     0.00003023    0.00085884    0.00128749
     atom   13 type  1   force =     0.00003468    0.00170359   -0.00474732
     atom   14 type  1   force =     0.00002523   -0.00223626    0.00096082
     atom   15 type  1   force =    -0.00002511    0.00224404   -0.00102390
     atom   16 type  1   force =    -0.00003502   -0.00170699    0.00471979
     atom   17 type  1   force =    -0.00002916   -0.00086022   -0.00129019
     atom   18 type  1   force =    -0.00002567   -0.00387312    0.03619698
     atom   19 type  1   force =    -0.00002666   -0.00002625    0.08970880
     atom   20 type  1   force =     0.00002673    0.00003817   -0.08968484
     The ionic contribution  to forces
     atom    1 type  1   force =    -0.00012349    0.05125041   -9.39808764
     atom    2 type  1   force =    -0.00014494   -0.06383187   -6.40272212
     atom    3 type  1   force =    -0.00003569    0.03693658   -4.18518137
     atom    4 type  1   force =    -0.00006612   -0.02363451   -1.14781169
     atom    5 type  1   force =     0.00006587    0.02367666    1.14700683
     atom    6 type  1   force =     0.00004397   -0.03704787    4.18592554
     atom    7 type  1   force =     0.00012136    0.06390174    6.40157931
     atom    8 type  1   force =     0.00011201   -0.05123956    9.39923458
     atom    9 type  1   force =     0.00001852    0.01584797   11.20076332
     atom   10 type  1   force =    -0.00001979   -0.01585538  -11.20064416
     atom   11 type  1   force =    -0.00011788    0.05125084   -9.39809792
     atom   12 type  1   force =    -0.00012970   -0.06383798   -6.40273748
     atom   13 type  1   force =    -0.00003351    0.03694148   -4.18522563
     atom   14 type  1   force =    -0.00006188   -0.02363287   -1.14780705
     atom   15 type  1   force =     0.00006286    0.02367691    1.14700311
     atom   16 type  1   force =     0.00002406   -0.03705879    4.18593428
     atom   17 type  1   force =     0.00015422    0.06389953    6.40155163
     atom   18 type  1   force =     0.00012688   -0.05123567    9.39926155
     atom   19 type  1   force =     0.00001711    0.01584755   11.20073490
     atom   20 type  1   force =    -0.00001387   -0.01585517  -11.20068000
     The local contribution  to forces
     atom    1 type  1   force =     0.00009532   -0.05020290    9.44497390
     atom    2 type  1   force =     0.00011617    0.06125046    6.40980854
     atom    3 type  1   force =    -0.00000025   -0.03798110    4.19603201
     atom    4 type  1   force =     0.00004120    0.02587067    1.14830570
     atom    5 type  1   force =    -0.00004115   -0.02591913   -1.14739513
     atom    6 type  1   force =    -0.00000821    0.03809401   -4.19670318
     atom    7 type  1   force =    -0.00009189   -0.06131710   -6.40860147
     atom    8 type  1   force =    -0.00008324    0.05020063   -9.44611078
     atom    9 type  1   force =     0.00000577   -0.01013216  -11.31055916
     atom   10 type  1   force =    -0.00000349    0.01012435   11.31050213
     atom   11 type  1   force =     0.00008886   -0.05020427    9.44498434
     atom   12 type  1   force =     0.00010049    0.06125598    6.40982415
     atom   13 type  1   force =    -0.00000248   -0.03798657    4.19607622
     atom   14 type  1   force =     0.00003685    0.02586913    1.14830110
     atom   15 type  1   force =    -0.00003787   -0.02591921   -1.14739144
     atom   16 type  1   force =     0.00001205    0.03810588   -4.19671123
     atom   17 type  1   force =    -0.00012553   -0.06131572   -6.40857357
     atom   18 type  1   force =    -0.00009906    0.05019554   -9.44613873
     atom   19 type  1   force =     0.00000625   -0.01013271  -11.31052878
     atom   20 type  1   force =    -0.00000972    0.01012295   11.31054016
     The core correction contribution to forces
     atom    1 type  1   force =     0.00000000    0.00000000    0.00000000
     atom    2 type  1   force =     0.00000000    0.00000000    0.00000000
     atom    3 type  1   force =     0.00000000    0.00000000    0.00000000
     atom    4 type  1   force =     0.00000000    0.00000000    0.00000000
     atom    5 type  1   force =     0.00000000    0.00000000    0.00000000
     atom    6 type  1   force =     0.00000000    0.00000000    0.00000000
     atom    7 type  1   force =     0.00000000    0.00000000    0.00000000
     atom    8 type  1   force =     0.00000000    0.00000000    0.00000000
     atom    9 type  1   force =     0.00000000    0.00000000    0.00000000
     atom   10 type  1   force =     0.00000000    0.00000000    0.00000000
     atom   11 type  1   force =     0.00000000    0.00000000    0.00000000
     atom   12 type  1   force =     0.00000000    0.00000000    0.00000000
     atom   13 type  1   force =     0.00000000    0.00000000    0.00000000
     atom   14 type  1   force =     0.00000000    0.00000000    0.00000000
     atom   15 type  1   force =     0.00000000    0.00000000    0.00000000
     atom   16 type  1   force =     0.00000000    0.00000000    0.00000000
     atom   17 type  1   force =     0.00000000    0.00000000    0.00000000
     atom   18 type  1   force =     0.00000000    0.00000000    0.00000000
     atom   19 type  1   force =     0.00000000    0.00000000    0.00000000
     atom   20 type  1   force =     0.00000000    0.00000000    0.00000000
     The Hubbard contrib.    to forces
     atom    1 type  1   force =     0.00000000    0.00000000    0.00000000
     atom    2 type  1   force =     0.00000000    0.00000000    0.00000000
     atom    3 type  1   force =     0.00000000    0.00000000    0.00000000
     atom    4 type  1   force =     0.00000000    0.00000000    0.00000000
     atom    5 type  1   force =     0.00000000    0.00000000    0.00000000
     atom    6 type  1   force =     0.00000000    0.00000000    0.00000000
     atom    7 type  1   force =     0.00000000    0.00000000    0.00000000
     atom    8 type  1   force =     0.00000000    0.00000000    0.00000000
     atom    9 type  1   force =     0.00000000    0.00000000    0.00000000
     atom   10 type  1   force =     0.00000000    0.00000000    0.00000000
     atom   11 type  1   force =     0.00000000    0.00000000    0.00000000
     atom   12 type  1   force =     0.00000000    0.00000000    0.00000000
     atom   13 type  1   force =     0.00000000    0.00000000    0.00000000
     atom   14 type  1   force =     0.00000000    0.00000000    0.00000000
     atom   15 type  1   force =     0.00000000    0.00000000    0.00000000
     atom   16 type  1   force =     0.00000000    0.00000000    0.00000000
     atom   17 type  1   force =     0.00000000    0.00000000    0.00000000
     atom   18 type  1   force =     0.00000000    0.00000000    0.00000000
     atom   19 type  1   force =     0.00000000    0.00000000    0.00000000
     atom   20 type  1   force =     0.00000000    0.00000000    0.00000000
     The SCF correction term to forces
     atom    1 type  1   force =     0.00000002   -0.00000002    0.00000200
     atom    2 type  1   force =    -0.00000001    0.00000006    0.00000207
     atom    3 type  1   force =     0.00000001    0.00000005   -0.00000005
     atom    4 type  1   force =    -0.00000001    0.00000024   -0.00000044
     atom    5 type  1   force =    -0.00000001   -0.00000026    0.00000019
     atom    6 type  1   force =     0.00000000   -0.00000002   -0.00000011
     atom    7 type  1   force =     0.00000000   -0.00000009   -0.00000212
     atom    8 type  1   force =     0.00000001    0.00000004   -0.00000235
     atom    9 type  1   force =     0.00000003   -0.00000049   -0.00000004
     atom   10 type  1   force =     0.00000002    0.00000060    0.00000014
     atom   11 type  1   force =     0.00000001   -0.00000004    0.00000199
     atom   12 type  1   force =    -0.00000002    0.00000005    0.00000207
     atom   13 type  1   force =     0.00000001    0.00000005   -0.00000004
     atom   14 type  1   force =     0.00000000    0.00000025   -0.00000044
     atom   15 type  1   force =    -0.00000000   -0.00000026    0.00000020
     atom   16 type  1   force =    -0.00000002   -0.00000003   -0.00000011
     atom   17 type  1   force =     0.00000002   -0.00000009   -0.00000212
     atom   18 type  1   force =     0.00000003    0.00000004   -0.00000230
     atom   19 type  1   force =     0.00000005   -0.00000048   -0.00000005
     atom   20 type  1   force =     0.00000003    0.00000063    0.00000012

     Total force =     0.000741     Total SCF correction =     0.000006
     Energy error            =      1.7E-06 Ry
     Gradient error          =      3.0E-04 Ry/Bohr

     bfgs converged in  31 scf cycles and  30 bfgs steps
     (criteria: energy <  1.0E-05 Ry, force <  3.9E-04 Ry/Bohr)

     End of BFGS Geometry Optimization

     Final energy             =    -300.7172569003 Ry

     File ./Li/Lithium.bfgs deleted, as requested
Begin final coordinates

ATOMIC_POSITIONS (angstrom)
Li               1.7195865390        2.1870999297       21.0777564112
Li               0.0018080886        4.3473692036       22.3101584606
Li               0.0011088482        1.1132550690       23.2175061031
Li               1.7181249476        3.2231282997       24.4958916373
Li               1.7170457928        0.0367090189       25.4380994215
Li              -0.0011179556        2.1462048692       26.7165798544
Li               1.7157685649        4.3431993993       27.6222759126
Li               1.7155771282        1.0708979896       28.8547426408
Li              -0.0020594741        3.5132395523       29.9122088753
Li               3.4372071102       -0.2552949202       20.0188113911
Li               5.1547474216        2.1871080336       21.0777498032
Li               3.4369714695        4.3473817164       22.3101510867
Li               3.4362651663        1.1132528770       23.2174827372
Li               5.1532710076        3.2231358748       24.4958979554
Li               5.1521830407        0.0367072123       25.4381013545
Li               3.4340605991        2.1462090918       26.7165882674
Li               5.1509197387        4.3432273022       27.6222597129
Li               5.1507238439        1.0708980931       28.8547537376
Li               3.4331057009        3.5132380754       29.9121696598
Li               6.8723610254       -0.2552889131       20.0187698618
End final coordinates



     Writing all to output data dir ./Li/Lithium.save/ :
     XML data file
     init_run     :     10.46s CPU     19.23s WALL (       1 calls)
     electrons    :   9283.31s CPU  12015.95s WALL (      31 calls)
     update_pot   :      1.71s CPU      2.13s WALL (      30 calls)
     forces       :     90.54s CPU     97.48s WALL (      31 calls)

     Called by init_run:
     wfcinit      :      1.56s CPU      2.20s WALL (       1 calls)
     wfcinit:wfcr :      1.50s CPU      2.14s WALL (      31 calls)
     potinit      :      0.74s CPU      0.83s WALL (       1 calls)
     hinit0       :      4.49s CPU     12.35s WALL (       1 calls)

     Called by electrons:
     c_bands      :   7701.80s CPU  10041.83s WALL (     585 calls)
     sum_band     :    423.78s CPU    591.57s WALL (     585 calls)
     v_of_rho     :     23.06s CPU     28.21s WALL (     586 calls)
     v_h          :      2.25s CPU      2.65s WALL (     586 calls)
     v_xc         :     20.79s CPU     25.54s WALL (     586 calls)
     newd         :     13.80s CPU     22.91s WALL (     586 calls)
     PAW_pot      :      4.22s CPU      6.43s WALL (     616 calls)
     mix_rho      :     69.83s CPU     89.60s WALL (     585 calls)

     Called by c_bands:
     init_us_2    :     24.68s CPU     27.88s WALL (   38192 calls)
     cegterg      :   7313.90s CPU   9063.56s WALL (   24402 calls)

     Called by sum_band:
     sum_band:wei :      1.05s CPU      1.28s WALL (     585 calls)
     sum_band:loo :    410.07s CPU    575.39s WALL (     585 calls)
     sum_band:buf :      3.36s CPU      3.90s WALL (   18135 calls)
     sum_band:ini :      8.36s CPU      9.39s WALL (   18135 calls)
     sum_band:cal :     47.97s CPU     59.53s WALL (   19065 calls)
     sum_band:bec :      0.98s CPU      1.18s WALL (   19065 calls)
     addusdens    :      8.99s CPU      9.44s WALL (     585 calls)
                                        0.00s GPU  (     585 calls)
     addusd:skk   :      1.35s CPU      1.41s WALL (     585 calls)
                                        0.00s GPU  (     585 calls)

     Called by *egterg:
     cdiaghg      :   1986.80s CPU   2094.27s WALL (  345939 calls)
     cegterg:over :    383.46s CPU    434.10s WALL (  323799 calls)
     cegterg:upda :    365.28s CPU    380.98s WALL (  323799 calls)
     cegterg:last :     77.31s CPU     79.01s WALL (   32351 calls)
     h_psi        :   4126.67s CPU   5667.69s WALL (  348232 calls)
     s_psi        :    213.57s CPU    231.85s WALL (  348232 calls)
     g_psi        :      4.73s CPU      5.06s WALL (  323799 calls)

     Called by h_psi:
     h_psi:calbec :    385.58s CPU    487.44s WALL (  348232 calls)
     vloc_psi     :   3481.31s CPU   4881.75s WALL (  348232 calls)
                                        0.00s GPU  (  348232 calls)
     add_vuspsi   :    242.16s CPU    279.29s WALL (  348232 calls)

     General routines
     calbec       :    440.81s CPU    555.14s WALL (  371141 calls)
     fft          :     23.01s CPU     36.75s WALL (    7678 calls)
     ffts         :     54.92s CPU     70.75s WALL (   65623 calls)
     fftw         :   3676.39s CPU   5179.79s WALL ( 8631133 calls)
     interpolate  :      2.69s CPU      3.17s WALL (     586 calls)

     Parallel routines

     PAW routines
     PAW_pot      :      4.22s CPU      6.43s WALL (     616 calls)

     Environ routines

     PWSCF        :      2h37m CPU      3h23m WALL


   This run was terminated on:  14: 9:27   2Jan2025            

=------------------------------------------------------------------------------=
   JOB DONE.
=------------------------------------------------------------------------------=
