
     Program PWSCF v.7.4 starts on  2Jan2025 at 10:51:35 

     This program is part of the open-source Quantum ESPRESSO suite
     for quantum simulation of materials; please cite
         "P. Giannozzi et al., J. Phys.:Condens. Matter 21 395502 (2009);
         "P. Giannozzi et al., J. Phys.:Condens. Matter 29 465901 (2017);
         "P. Giannozzi et al., J. Chem. Phys. 152 154105 (2020);
          URL http://www.quantum-espresso.org", 
     in publications or presentations arising from this work. More details at
     http://www.quantum-espresso.org/quote

     Parallel version (MPI & OpenMP), running on     512 processor cores
     Number of MPI processes:               512
     Threads/MPI process:                     1

     MPI processes distributed on     4 nodes
     231235 MiB available memory on the printing compute node when the environment starts

     Reading input from espresso.pwi
Warning: card &CELL ignored
Warning: card    PRESS_CONV_THR   = 0.1 ignored
Warning: card    CELL_DOFREE      = 'ALL' ignored
Warning: card / ignored
Warning: card &FCP ignored
Warning: card / ignored
Warning: card &RISM ignored
Warning: card / ignored

     Current dimensions of program PWSCF are:
     Max number of different atomic species (ntypx) = 10
     Max number of k-points (npk) =  40000
     Max angular momentum in pseudopotentials (lmaxx) =  4

     IMPORTANT: XC functional enforced from input :
     Exchange-correlation= PBE
                           (   1   4   3   4   0   0   0)
     Any further DFT definition will be discarded
     Please, verify this is what you really want


     Reading input from environ.in:
     * using ionic solvent mode
     * setting boundary derivatives method to SSCS default
     * setting electrolyte-boundary derivatives method to SSCS default

Environ Warning (1001): card EOF ignored

     

     K-points division:     npool     =       2
     R & G space division:  proc/nbgrp/npool/nimage =     256
     Subspace diagonalization in iterative solution of the eigenvalue problem:
     one sub-group per band group will be used
     ELPA distributed-memory algorithm (size of sub-group:  2*  2 procs)


     Parallelization info
     --------------------
     sticks:   dense  smooth     PW     G-vecs:    dense   smooth      PW
     Min          86      34      9                52542    13274    1767
     Max          87      35     10                52593    13321    1811
     Sum       22119    8865   2329             13455463  3404289  459339

     Using Slab Decomposition



     bravais-lattice index     =           12
     lattice parameter (alat)  =      18.3607  a.u.
     unit-cell volume          =   35212.2554 (a.u.)^3
     number of atoms/cell      =           68
     number of atomic types    =            1
     number of electrons       =       204.00
     number of Kohn-Sham states=          153
     kinetic-energy cutoff     =      80.0000  Ry
     charge density cutoff     =     800.0000  Ry
     scf convergence threshold =      1.0E-06
     mixing beta               =       0.2000
     number of iterations used =            8  local-TF  mixing
     energy convergence thresh.=      1.0E-05
     force convergence thresh. =      3.9E-04
     Exchange-correlation= PBE
                           (   1   4   3   4   0   0   0)
     nstep                     =          999


     ================================================================================

                                  Environ Setup Summary

     ================================================================================

     Please cite

          O. Andreussi, I. Dabo and N. Marzari, J. Chem. Phys. 136, 064102 (2012)
          F. Nattino, M. Truscott, N. Marzari, and O. Andreussi, J. Chem. Phys. 150, 041722 (2019)

     in publications or presentations arising from this work.

     ================================================================================

     Parameters
     ==========

     compensation onset threshold      =               0.1000E+00
     static permittivity               =                    89.90
     surface tension in input (dyn/cm) =                    37.30
     surface tension in internal units =               0.4792E-04

     Solvent Boundary
     ================

     solvent mode                      =                    ionic
     derivatives method                =                   lowmem
     electrolyte derivatives method    =                   lowmem
     numerical core for derivatives    =                      fft
     switching function adopted        =                     SCCS
     density limit for vacuum region   =               0.5000E-02
     density limit for bulk solvent    =               0.1000E-03
     soft-sphere radius mode           =                    bondi
     soft-sphere softness              =                     0.50
     alpha                             =                     1.32

     Electrostatic Setup
     ===================

     electrostatic problem to solve    =                    modpb
     numerical solver adopted          =                   newton
     type of auxiliary density adopted =                     none
     numerical core for poisson        =                      fft
     adopting a nested solver scheme
     inner solver                      =                       cg
     inner core                        =                      fft
     type of pbc corrections           =                parabolic
     numerical core for corrections    =                      1da

     ================================================================================


     >>>>> Grand-Canonical SCF is activated <<<<<
     Initial Total Charge  =     0.000000 e
     Target Fermi Energy   =    -2.904000 eV
     Thr. of Fermi Energy  =     0.001000 eV
     Wave-shift of Kerker  =     0.400000 bohr^-1
     Wave-shift of Hartree =     1.500000 bohr^-1
     Mixing Rate of Fermi  =     0.050000

     celldm(1)=  18.360747  celldm(2)=   1.060660  celldm(3)=   5.518976
     celldm(4)=  -0.235702  celldm(5)=   0.000000  celldm(6)=   0.000000

     crystal axes: (cart. coord. in units of alat)
               a(1) = (   1.000000   0.000000   0.000000 )  
               a(2) = (  -0.250000   1.030776   0.000000 )  
               a(3) = (   0.000000   0.000000   5.518976 )  

     reciprocal axes: (cart. coord. in units 2 pi/alat)
               b(1) = (  1.000000  0.242536 -0.000000 )  
               b(2) = (  0.000000  0.970143  0.000000 )  
               b(3) = (  0.000000 -0.000000  0.181193 )  


     PseudoPot. # 1 for Li read from file:
     /work/e89/e89/ba3g18/Repos/Pseudopotentials/Pslibrary/Li.pbe-sl-kjpaw_psl.1.0.0.UPF
     MD5 check sum: 3f4d2cafebb47c6c3aa8ed472e6f074d
     Pseudo is Projector augmented-wave, Zval =  3.0
     Generated using 'atomic' code by A. Dal Corso  v.7.4
     Shape of augmentation charge: PSQ
     Using radial grid of 1017 points,  4 beta functions with: 
                l(1) =   0
                l(2) =   0
                l(3) =   1
                l(4) =   1
     Q(r) pseudized with 0 coefficients 


     atomic species   valence    mass     pseudopotential
     Li                3.00     6.94000     Li( 1.00)

     No symmetry found


                                    s                        frac. trans.

      isym =  1     identity                                     

 cryst.   s( 1) = (     1          0          0      )
                  (     0          1          0      )
                  (     0          0          1      )

 cart.    s( 1) = (  1.0000000  0.0000000  0.0000000 )
                  (  0.0000000  1.0000000  0.0000000 )
                  (  0.0000000  0.0000000  1.0000000 )


     point group C_1 (1)    
     there are  1 classes
     the character table:

       E    
A      1.00

     the symmetry operations in each class and the name of the first element:

     E        1
          identity                                               

   Cartesian axes

     site n.     atom                  positions (alat units)
         1        Li     tau(   1) = (  -0.0003981   0.0347345   2.0466680  )
         2        Li     tau(   2) = (   0.0002622   0.6056439   3.4294764  )
         3        Li     tau(   3) = (   0.2502525   0.7873289   3.2526099  )
         4        Li     tau(   4) = (   0.2503616   0.1912942   3.2918806  )
         5        Li     tau(   5) = (   0.0003129   0.3638415   3.1724788  )
         6        Li     tau(   6) = (   0.2501314   0.5512072   2.9935879  )
         7        Li     tau(   7) = (   0.2499030   0.9081047   2.6504712  )
         8        Li     tau(   8) = (   0.0002597   0.9682465   3.0934636  )
         9        Li     tau(   9) = (   0.0001454   0.1218465   2.9085766  )
        10        Li     tau(  10) = (   0.2499419   0.3065828   2.7258484  )
        11        Li     tau(  11) = (  -0.0001809   0.4832079   2.5664508  )
        12        Li     tau(  12) = (   0.2497779   0.6643800   2.3842792  )
        13        Li     tau(  13) = (   0.0000598   0.7255259   2.8296611  )
        14        Li     tau(  14) = (   0.2498388   0.0550794   2.5012977  )
        15        Li     tau(  15) = (  -0.0003767   0.2433722   2.3138895  )
        16        Li     tau(  16) = (   0.2497486   0.3986978   2.1184205  )
        17        Li     tau(  17) = (  -0.0002284   0.8531378   2.2352218  )
        18        Li     tau(  18) = (   0.0003708   0.0597990   3.2050857  )
        19        Li     tau(  19) = (   0.0002228   0.6695657   3.1346970  )
        20        Li     tau(  20) = (   0.2501806   0.8507376   2.9525255  )
        21        Li     tau(  21) = (   0.2501606   0.2480883   3.0176844  )
        22        Li     tau(  22) = (   0.0000959   0.4258410   2.8685052  )
        23        Li     tau(  23) = (   0.2499404   0.6084197   2.6893146  )
        24        Li     tau(  24) = (   0.2496863   0.9701039   2.3464978  )
        25        Li     tau(  25) = (   0.0000579   1.0273622   2.7931315  )
        26        Li     tau(  26) = (  -0.0001481   0.1813234   2.6103974  )
        27        Li     tau(  27) = (   0.2497406   0.3656982   2.4255145  )
        28        Li     tau(  28) = (  -0.0002517   0.5466179   2.2663670  )
        29        Li     tau(  29) = (   0.2497379   0.7282992   2.0894991  )
        30        Li     tau(  30) = (  -0.0001316   0.7827376   2.5253874  )
        31        Li     tau(  31) = (   0.2496385   0.1118765   2.2271063  )
        32        Li     tau(  32) = (   0.0004313   0.2684406   3.4723079  )
        33        Li     tau(  33) = (   0.2502291   0.4808089   3.2837531  )
        34        Li     tau(  34) = (   0.0002500   0.9352441   3.4005559  )
        35        Li     tau(  35) = (   0.4995569   0.0347268   2.0466687  )
        36        Li     tau(  36) = (   0.5002673   0.6056404   3.4294818  )
        37        Li     tau(  37) = (   0.7502588   0.7873301   3.2526096  )
        38        Li     tau(  38) = (   0.7503624   0.1912965   3.2918985  )
        39        Li     tau(  39) = (   0.5003106   0.3638413   3.1724781  )
        40        Li     tau(  40) = (   0.7501281   0.5512074   2.9935831  )
        41        Li     tau(  41) = (   0.7499065   0.9081064   2.6504719  )
        42        Li     tau(  42) = (   0.5002591   0.9682485   3.0934563  )
        43        Li     tau(  43) = (   0.5001480   0.1218463   2.9085788  )
        44        Li     tau(  44) = (   0.7499436   0.3065837   2.7258528  )
        45        Li     tau(  45) = (   0.4998178   0.4832078   2.5664500  )
        46        Li     tau(  46) = (   0.7497750   0.6643767   2.3842724  )
        47        Li     tau(  47) = (   0.5000612   0.7255260   2.8296665  )
        48        Li     tau(  48) = (   0.7498376   0.0550836   2.5012758  )
        49        Li     tau(  49) = (   0.4996319   0.2433704   2.3138902  )
        50        Li     tau(  50) = (   0.7497527   0.3987154   2.1184302  )
        51        Li     tau(  51) = (   0.4997706   0.8531340   2.2352302  )
        52        Li     tau(  52) = (   0.5003748   0.0597978   3.2050868  )
        53        Li     tau(  53) = (   0.5002241   0.6695689   3.1347036  )
        54        Li     tau(  54) = (   0.7501827   0.8507386   2.9525257  )
        55        Li     tau(  55) = (   0.7501622   0.2480886   3.0176941  )
        56        Li     tau(  56) = (   0.5000941   0.4258400   2.8685038  )
        57        Li     tau(  57) = (   0.7499387   0.6084201   2.6893101  )
        58        Li     tau(  58) = (   0.7496898   0.9701049   2.3464974  )
        59        Li     tau(  59) = (   0.5000560   1.0273635   2.7931193  )
        60        Li     tau(  60) = (   0.4998540   0.1813236   2.6103996  )
        61        Li     tau(  61) = (   0.7497410   0.3656983   2.4255177  )
        62        Li     tau(  62) = (   0.4997402   0.5466146   2.2663655  )
        63        Li     tau(  63) = (   0.7497321   0.7283077   2.0894950  )
        64        Li     tau(  64) = (   0.4998718   0.7827394   2.5253939  )
        65        Li     tau(  65) = (   0.7496382   0.1118721   2.2270664  )
        66        Li     tau(  66) = (   0.5004106   0.2684370   3.4723075  )
        67        Li     tau(  67) = (   0.7502280   0.4808105   3.2837469  )
        68        Li     tau(  68) = (   0.5002492   0.9352341   3.4005457  )

   Crystallographic axes

     site n.     atom                  positions (cryst. coord.)
         1        Li     tau(   1) = (  0.0080262  0.0336974  0.3708420  )
         2        Li     tau(   2) = (  0.1471525  0.5875611  0.6213972  )
         3        Li     tau(   3) = (  0.4412079  0.7638215  0.5893503  )
         4        Li     tau(   4) = (  0.2967573  0.1855827  0.5964658  )
         5        Li     tau(   5) = (  0.0885575  0.3529782  0.5748311  )
         6        Li     tau(   6) = (  0.3838188  0.5347498  0.5424173  )
         7        Li     tau(   7) = (  0.4701509  0.8809913  0.4802469  )
         8        Li     tau(   8) = (  0.2350941  0.9393374  0.5605140  )
         9        Li     tau(   9) = (  0.0296975  0.1182085  0.5270138  )
        10        Li     tau(  10) = (  0.3242991  0.2974292  0.4939047  )
        11        Li     tau(  11) = (  0.1170143  0.4687807  0.4650230  )
        12        Li     tau(  12) = (  0.4109138  0.6445435  0.4320148  )
        13        Li     tau(  13) = (  0.1760258  0.7038638  0.5127149  )
        14        Li     tau(  14) = (  0.2631976  0.0534349  0.4532177  )
        15        Li     tau(  15) = (  0.0586498  0.2361058  0.4192607  )
        16        Li     tau(  16) = (  0.3464471  0.3867939  0.3838430  )
        17        Li     tau(  17) = (  0.2066880  0.8276656  0.4050066  )
        18        Li     tau(  18) = (  0.0148742  0.0580136  0.5807392  )
        19        Li     tau(  19) = (  0.1626163  0.6495744  0.5679853  )
        20        Li     tau(  20) = (  0.4565149  0.8253370  0.5349771  )
        21        Li     tau(  21) = (  0.3103309  0.2406811  0.5467834  )
        22        Li     tau(  22) = (  0.1033775  0.4131266  0.5197532  )
        23        Li     tau(  23) = (  0.3975039  0.5902541  0.4872851  )
        24        Li     tau(  24) = (  0.4849712  0.9411394  0.4251691  )
        25        Li     tau(  25) = (  0.2492299  0.9966882  0.5060960  )
        26        Li     tau(  26) = (  0.0438293  0.1759096  0.4729858  )
        27        Li     tau(  27) = (  0.3384355  0.3547795  0.4394863  )
        28        Li     tau(  28) = (  0.1323227  0.5302974  0.4106499  )
        29        Li     tau(  29) = (  0.4263765  0.7065543  0.3786027  )
        30        Li     tau(  30) = (  0.1897102  0.7593674  0.4575826  )
        31        Li     tau(  31) = (  0.2767726  0.1085362  0.4035361  )
        32        Li     tau(  32) = (  0.0655377  0.2604258  0.6291580  )
        33        Li     tau(  33) = (  0.3668424  0.4664534  0.5949932  )
        34        Li     tau(  34) = (  0.2270801  0.9073204  0.6161570  )
        35        Li     tau(  35) = (  0.5079794  0.0336900  0.3708421  )
        36        Li     tau(  36) = (  0.6471567  0.5875577  0.6213982  )
        37        Li     tau(  37) = (  0.9412145  0.7638227  0.5893502  )
        38        Li     tau(  38) = (  0.7967587  0.1855849  0.5964691  )
        39        Li     tau(  39) = (  0.5885551  0.3529780  0.5748309  )
        40        Li     tau(  40) = (  0.8838156  0.5347499  0.5424164  )
        41        Li     tau(  41) = (  0.9701547  0.8809930  0.4802471  )
        42        Li     tau(  42) = (  0.7350939  0.9393394  0.5605127  )
        43        Li     tau(  43) = (  0.5297001  0.1182083  0.5270142  )
        44        Li     tau(  44) = (  0.8243012  0.2974300  0.4939055  )
        45        Li     tau(  45) = (  0.6170129  0.4687806  0.4650229  )
        46        Li     tau(  46) = (  0.9109101  0.6445404  0.4320136  )
        47        Li     tau(  47) = (  0.6760272  0.7038639  0.5127158  )
        48        Li     tau(  48) = (  0.7631973  0.0534390  0.4532137  )
        49        Li     tau(  49) = (  0.5586579  0.2361040  0.4192608  )
        50        Li     tau(  50) = (  0.8464554  0.3868109  0.3838448  )
        51        Li     tau(  51) = (  0.7066861  0.8276619  0.4050081  )
        52        Li     tau(  52) = (  0.5148779  0.0580124  0.5807394  )
        53        Li     tau(  53) = (  0.6626185  0.6495775  0.5679864  )
        54        Li     tau(  54) = (  0.9565172  0.8253380  0.5349771  )
        55        Li     tau(  55) = (  0.8103326  0.2406814  0.5467851  )
        56        Li     tau(  56) = (  0.6033755  0.4131256  0.5197529  )
        57        Li     tau(  57) = (  0.8975023  0.5902544  0.4872842  )
        58        Li     tau(  58) = (  0.9849749  0.9411403  0.4251690  )
        59        Li     tau(  59) = (  0.7492283  0.9966894  0.5060938  )
        60        Li     tau(  60) = (  0.5438315  0.1759098  0.4729862  )
        61        Li     tau(  61) = (  0.8384359  0.3547796  0.4394869  )
        62        Li     tau(  62) = (  0.6323138  0.5302943  0.4106496  )
        63        Li     tau(  63) = (  0.9263727  0.7065625  0.3786019  )
        64        Li     tau(  64) = (  0.6897141  0.7593691  0.4575838  )
        65        Li     tau(  65) = (  0.7767712  0.1085320  0.4035289  )
        66        Li     tau(  66) = (  0.5655162  0.2604223  0.6291579  )
        67        Li     tau(  67) = (  0.8668417  0.4664549  0.5949921  )
        68        Li     tau(  68) = (  0.7270769  0.9073107  0.6161552  )

     number of k points=    25  Marzari-Vanderbilt smearing, width (Ry)=  0.0100
                       cart. coord. in units 2pi/alat
        k(    1) = (   0.0000000   0.0000000   0.0000000), wk =   0.0408163
        k(    2) = (   0.0000000   0.1385918   0.0000000), wk =   0.0816327
        k(    3) = (   0.0000000   0.2771837   0.0000000), wk =   0.0816327
        k(    4) = (   0.0000000   0.4157755   0.0000000), wk =   0.0816327
        k(    5) = (   0.1428571   0.0346480   0.0000000), wk =   0.0816327
        k(    6) = (   0.1428571   0.1732398   0.0000000), wk =   0.0816327
        k(    7) = (   0.1428571   0.3118316   0.0000000), wk =   0.0816327
        k(    8) = (   0.1428571   0.4504235   0.0000000), wk =   0.0816327
        k(    9) = (   0.1428571  -0.3811276   0.0000000), wk =   0.0816327
        k(   10) = (   0.1428571  -0.2425357   0.0000000), wk =   0.0816327
        k(   11) = (   0.1428571  -0.1039439   0.0000000), wk =   0.0816327
        k(   12) = (   0.2857143   0.0692959   0.0000000), wk =   0.0816327
        k(   13) = (   0.2857143   0.2078878   0.0000000), wk =   0.0816327
        k(   14) = (   0.2857143   0.3464796   0.0000000), wk =   0.0816327
        k(   15) = (   0.2857143   0.4850714   0.0000000), wk =   0.0816327
        k(   16) = (   0.2857143  -0.3464796   0.0000000), wk =   0.0816327
        k(   17) = (   0.2857143  -0.2078878   0.0000000), wk =   0.0816327
        k(   18) = (   0.2857143  -0.0692959   0.0000000), wk =   0.0816327
        k(   19) = (   0.4285714   0.1039439   0.0000000), wk =   0.0816327
        k(   20) = (   0.4285714   0.2425357   0.0000000), wk =   0.0816327
        k(   21) = (   0.4285714   0.3811276   0.0000000), wk =   0.0816327
        k(   22) = (   0.4285714   0.5197194   0.0000000), wk =   0.0816327
        k(   23) = (   0.4285714  -0.3118316   0.0000000), wk =   0.0816327
        k(   24) = (   0.4285714  -0.1732398   0.0000000), wk =   0.0816327
        k(   25) = (   0.4285714  -0.0346480   0.0000000), wk =   0.0816327

                       cryst. coord.
        k(    1) = (   0.0000000   0.0000000   0.0000000), wk =   0.0408163
        k(    2) = (   0.0000000   0.1428571   0.0000000), wk =   0.0816327
        k(    3) = (   0.0000000   0.2857143   0.0000000), wk =   0.0816327
        k(    4) = (   0.0000000   0.4285714   0.0000000), wk =   0.0816327
        k(    5) = (   0.1428571   0.0000000   0.0000000), wk =   0.0816327
        k(    6) = (   0.1428571   0.1428571   0.0000000), wk =   0.0816327
        k(    7) = (   0.1428571   0.2857143   0.0000000), wk =   0.0816327
        k(    8) = (   0.1428571   0.4285714   0.0000000), wk =   0.0816327
        k(    9) = (   0.1428571  -0.4285714   0.0000000), wk =   0.0816327
        k(   10) = (   0.1428571  -0.2857143   0.0000000), wk =   0.0816327
        k(   11) = (   0.1428571  -0.1428571   0.0000000), wk =   0.0816327
        k(   12) = (   0.2857143   0.0000000   0.0000000), wk =   0.0816327
        k(   13) = (   0.2857143   0.1428571   0.0000000), wk =   0.0816327
        k(   14) = (   0.2857143   0.2857143   0.0000000), wk =   0.0816327
        k(   15) = (   0.2857143   0.4285714   0.0000000), wk =   0.0816327
        k(   16) = (   0.2857143  -0.4285714   0.0000000), wk =   0.0816327
        k(   17) = (   0.2857143  -0.2857143   0.0000000), wk =   0.0816327
        k(   18) = (   0.2857143  -0.1428571   0.0000000), wk =   0.0816327
        k(   19) = (   0.4285714   0.0000000   0.0000000), wk =   0.0816327
        k(   20) = (   0.4285714   0.1428571   0.0000000), wk =   0.0816327
        k(   21) = (   0.4285714   0.2857143   0.0000000), wk =   0.0816327
        k(   22) = (   0.4285714   0.4285714   0.0000000), wk =   0.0816327
        k(   23) = (   0.4285714  -0.4285714   0.0000000), wk =   0.0816327
        k(   24) = (   0.4285714  -0.2857143   0.0000000), wk =   0.0816327
        k(   25) = (   0.4285714  -0.1428571   0.0000000), wk =   0.0816327

     Dense  grid: 13455463 G-vectors     FFT dimensions: ( 180, 180, 960)

     Smooth grid:  3404289 G-vectors     FFT dimensions: ( 108, 120, 600)

     Dynamical RAM for                 wfc:       3.88 MB

     Dynamical RAM for     wfc (w. buffer):      54.32 MB

     Dynamical RAM for           str. fact:       0.80 MB

     Dynamical RAM for           local pot:       0.00 MB

     Dynamical RAM for          nlocal pot:      13.80 MB

     Dynamical RAM for                qrad:       0.65 MB

     Dynamical RAM for          rho,v,vnew:       5.37 MB

     Dynamical RAM for               rhoin:       1.79 MB

     Dynamical RAM for            rho*nmix:      12.84 MB

     Dynamical RAM for           G-vectors:       3.11 MB

     Dynamical RAM for          h,s,v(r/c):       4.29 MB

     Dynamical RAM for          <psi|beta>:       1.27 MB

     Dynamical RAM for                 psi:      15.52 MB

     Dynamical RAM for                hpsi:      15.52 MB

     Dynamical RAM for                spsi:      15.52 MB

     Dynamical RAM for      wfcinit/wfcrot:       8.30 MB

     Dynamical RAM for           addusdens:      44.93 MB

     Dynamical RAM for          addusforce:      98.75 MB

     Estimated static dynamical RAM per process >      86.39 MB

     Estimated max dynamical RAM per process >     205.31 MB

     Estimated total dynamical RAM >      95.78 GB

     Initial potential from superposition of free atoms

     starting charge     203.6866, renormalised to     204.0000

     negative rho (up, down):  5.863E-03 0.000E+00
     Starting wfcs are random
     Checking if some PAW data can be deallocated... 

     total cpu time spent up to now is       48.5 secs

     Self-consistent Calculation

     iteration #  1     ecut=    80.00 Ry     beta= 0.20
     Davidson diagonalization with overlap

---- Real-time Memory Report at c_bands before calling an iterative solver
          1219 MiB given to the printing process from OS
             0 MiB allocation reported by mallinfo(arena+hblkhd)
        209904 MiB available memory on the node where the printing process lives
------------------
     c_bands:  1 eigenvalues not converged
     c_bands:  2 eigenvalues not converged
     c_bands:  1 eigenvalues not converged
     ethr =  1.00E-12,  avg # of iterations =147.0

     negative rho (up, down):  4.361E-03 0.000E+00

     total cpu time spent up to now is      779.0 secs

     total energy              =   -1022.25941672 Ry
     estimated scf accuracy    <       0.21238348 Ry

     total charge of GC-SCF    =       0.03936368 e
     the Fermi energy          =      -4.35572256 eV
                        (error :       1.45172256 eV)
     electrostatic embedding   =       0.00000000 Ry
     cavitation energy         =       0.04449223 Ry
     electrolyte free energy   =       0.01515579 Ry
     correction to one-el term =      -0.00000000 Ry

     iteration #  2     ecut=    80.00 Ry     beta= 0.20
     Davidson diagonalization with overlap

---- Real-time Memory Report at c_bands before calling an iterative solver
          1219 MiB given to the printing process from OS
             0 MiB allocation reported by mallinfo(arena+hblkhd)
        203718 MiB available memory on the node where the printing process lives
------------------
     ethr =  1.00E-05,  avg # of iterations = 12.7

     negative rho (up, down):  3.412E-03 0.000E+00

     total cpu time spent up to now is      853.6 secs

     total energy              =   -1022.60267549 Ry
     estimated scf accuracy    <       0.10968845 Ry

     total charge of GC-SCF    =       0.07680857 e
     the Fermi energy          =      -3.15672875 eV
                        (error :       0.25272875 eV)
     electrostatic embedding   =       0.00035822 Ry
     cavitation energy         =       0.04449223 Ry
     electrolyte free energy   =       0.01515579 Ry
     correction to one-el term =      -0.00000000 Ry

     iteration #  3     ecut=    80.00 Ry     beta= 0.20
     Davidson diagonalization with overlap

---- Real-time Memory Report at c_bands before calling an iterative solver
          1219 MiB given to the printing process from OS
             0 MiB allocation reported by mallinfo(arena+hblkhd)
        203153 MiB available memory on the node where the printing process lives
------------------
     ethr =  1.00E-05,  avg # of iterations = 10.3

     negative rho (up, down):  2.561E-03 0.000E+00

     add environment contribution to local potential

     total cpu time spent up to now is      920.9 secs

     total energy              =   -1022.39645746 Ry
     estimated scf accuracy    <       0.06040971 Ry

     total charge of GC-SCF    =       0.21316392 e
     the Fermi energy          =      -3.06124937 eV
                        (error :       0.15724937 eV)
     electrostatic embedding   =       0.00069898 Ry
     cavitation energy         =       0.04449223 Ry
     electrolyte free energy   =       0.01515579 Ry
     correction to one-el term =      -0.00000000 Ry

     iteration #  4     ecut=    80.00 Ry     beta= 0.20
     Davidson diagonalization with overlap

---- Real-time Memory Report at c_bands before calling an iterative solver
          1219 MiB given to the printing process from OS
             0 MiB allocation reported by mallinfo(arena+hblkhd)
        203109 MiB available memory on the node where the printing process lives
------------------
     ethr =  1.00E-05,  avg # of iterations = 34.2

     negative rho (up, down):  2.182E-03 0.000E+00

     add environment contribution to local potential

     total cpu time spent up to now is     1070.5 secs

     total energy              =   -1022.49687048 Ry
     estimated scf accuracy    <       0.01512589 Ry

     total charge of GC-SCF    =       0.19306606 e
     the Fermi energy          =      -2.64354725 eV
                        (error :       0.26045275 eV)
     electrostatic embedding   =      -0.03456554 Ry
     cavitation energy         =       0.04449223 Ry
     electrolyte free energy   =      -0.00204155 Ry
     correction to one-el term =      -1.26043905 Ry

     iteration #  5     ecut=    80.00 Ry     beta= 0.20
     Davidson diagonalization with overlap

---- Real-time Memory Report at c_bands before calling an iterative solver
          1219 MiB given to the printing process from OS
             0 MiB allocation reported by mallinfo(arena+hblkhd)
        203015 MiB available memory on the node where the printing process lives
------------------
     ethr =  7.42E-06,  avg # of iterations = 16.1

     negative rho (up, down):  1.867E-03 0.000E+00

     add environment contribution to local potential

     total cpu time spent up to now is     1165.0 secs

     total energy              =   -1022.49979878 Ry
     estimated scf accuracy    <       0.00803978 Ry

     total charge of GC-SCF    =       0.28806351 e
     the Fermi energy          =      -2.92179185 eV
                        (error :       0.01779185 eV)
     electrostatic embedding   =      -0.03528540 Ry
     cavitation energy         =       0.04449223 Ry
     electrolyte free energy   =      -0.00418984 Ry
     correction to one-el term =       0.08983670 Ry

     iteration #  6     ecut=    80.00 Ry     beta= 0.20
     Davidson diagonalization with overlap

---- Real-time Memory Report at c_bands before calling an iterative solver
          1219 MiB given to the printing process from OS
             0 MiB allocation reported by mallinfo(arena+hblkhd)
        202929 MiB available memory on the node where the printing process lives
------------------
     ethr =  3.95E-06,  avg # of iterations = 17.6

     negative rho (up, down):  1.617E-03 0.000E+00

     add environment contribution to local potential

     total cpu time spent up to now is     1277.4 secs

     total energy              =   -1022.49711184 Ry
     estimated scf accuracy    <       0.00673362 Ry

     total charge of GC-SCF    =       0.36392533 e
     the Fermi energy          =      -2.79719196 eV
                        (error :       0.10680804 eV)
     electrostatic embedding   =      -0.04635693 Ry
     cavitation energy         =       0.04449223 Ry
     electrolyte free energy   =      -0.00259059 Ry
     correction to one-el term =       2.85997738 Ry

     iteration #  7     ecut=    80.00 Ry     beta= 0.20
     Davidson diagonalization with overlap

---- Real-time Memory Report at c_bands before calling an iterative solver
          1219 MiB given to the printing process from OS
             0 MiB allocation reported by mallinfo(arena+hblkhd)
        203059 MiB available memory on the node where the printing process lives
------------------
     ethr =  3.31E-06,  avg # of iterations = 17.5

     negative rho (up, down):  1.922E-03 0.000E+00

     add environment contribution to local potential

     total cpu time spent up to now is     1378.1 secs

     total energy              =   -1022.53351777 Ry
     estimated scf accuracy    <       0.00207784 Ry

     total charge of GC-SCF    =       0.53359600 e
     the Fermi energy          =      -2.59951859 eV
                        (error :       0.30448141 eV)
     electrostatic embedding   =      -0.05072805 Ry
     cavitation energy         =       0.04449223 Ry
     electrolyte free energy   =      -0.00130689 Ry
     correction to one-el term =       2.04276632 Ry

     iteration #  8     ecut=    80.00 Ry     beta= 0.20
     Davidson diagonalization with overlap

---- Real-time Memory Report at c_bands before calling an iterative solver
          1219 MiB given to the printing process from OS
             0 MiB allocation reported by mallinfo(arena+hblkhd)
        202883 MiB available memory on the node where the printing process lives
------------------
     ethr =  1.02E-06,  avg # of iterations = 18.9

     negative rho (up, down):  1.822E-03 0.000E+00

     add environment contribution to local potential

     total cpu time spent up to now is     1496.4 secs

     total energy              =   -1022.53069658 Ry
     estimated scf accuracy    <       0.00082998 Ry

     total charge of GC-SCF    =       0.55803158 e
     the Fermi energy          =      -2.64596648 eV
                        (error :       0.25803352 eV)
     electrostatic embedding   =      -0.06236798 Ry
     cavitation energy         =       0.04449223 Ry
     electrolyte free energy   =      -0.00168174 Ry
     correction to one-el term =      -0.64163515 Ry

     iteration #  9     ecut=    80.00 Ry     beta= 0.20
     Davidson diagonalization with overlap

---- Real-time Memory Report at c_bands before calling an iterative solver
          1219 MiB given to the printing process from OS
             0 MiB allocation reported by mallinfo(arena+hblkhd)
        202576 MiB available memory on the node where the printing process lives
------------------
     ethr =  4.08E-07,  avg # of iterations = 16.3

     negative rho (up, down):  2.871E-03 0.000E+00

     add environment contribution to local potential

     total cpu time spent up to now is     1587.5 secs

     total energy              =   -1022.52587665 Ry
     estimated scf accuracy    <       0.00062135 Ry

     total charge of GC-SCF    =       0.64691294 e
     the Fermi energy          =      -2.69211327 eV
                        (error :       0.21188673 eV)
     electrostatic embedding   =      -0.06111914 Ry
     cavitation energy         =       0.04449223 Ry
     electrolyte free energy   =      -0.00194886 Ry
     correction to one-el term =      -1.94737199 Ry

     iteration # 10     ecut=    80.00 Ry     beta= 0.20
     Davidson diagonalization with overlap

---- Real-time Memory Report at c_bands before calling an iterative solver
          1219 MiB given to the printing process from OS
             0 MiB allocation reported by mallinfo(arena+hblkhd)
        202683 MiB available memory on the node where the printing process lives
------------------
     ethr =  3.06E-07,  avg # of iterations = 16.3

     negative rho (up, down):  3.635E-03 0.000E+00

     add environment contribution to local potential

     total cpu time spent up to now is     1693.1 secs

     total energy              =   -1022.52636718 Ry
     estimated scf accuracy    <       0.00081124 Ry

     total charge of GC-SCF    =       0.74180904 e
     the Fermi energy          =      -2.75769305 eV
                        (error :       0.14630695 eV)
     electrostatic embedding   =      -0.05976028 Ry
     cavitation energy         =       0.04449223 Ry
     electrolyte free energy   =      -0.00245962 Ry
     correction to one-el term =      -6.19984698 Ry

     iteration # 11     ecut=    80.00 Ry     beta= 0.20
     Davidson diagonalization with overlap

---- Real-time Memory Report at c_bands before calling an iterative solver
          1219 MiB given to the printing process from OS
             0 MiB allocation reported by mallinfo(arena+hblkhd)
        202768 MiB available memory on the node where the printing process lives
------------------
     ethr =  3.06E-07,  avg # of iterations = 14.6

     negative rho (up, down):  2.043E-03 0.000E+00

     add environment contribution to local potential

     total cpu time spent up to now is     1785.7 secs

     total energy              =   -1022.52836896 Ry
     estimated scf accuracy    <       0.00014502 Ry

     total charge of GC-SCF    =       0.84875957 e
     the Fermi energy          =      -2.75448739 eV
                        (error :       0.14951261 eV)
     electrostatic embedding   =      -0.06367364 Ry
     cavitation energy         =       0.04449223 Ry
     electrolyte free energy   =      -0.00252773 Ry
     correction to one-el term =     -10.31838122 Ry

     iteration # 12     ecut=    80.00 Ry     beta= 0.20
     Davidson diagonalization with overlap

---- Real-time Memory Report at c_bands before calling an iterative solver
          1219 MiB given to the printing process from OS
             0 MiB allocation reported by mallinfo(arena+hblkhd)
        202595 MiB available memory on the node where the printing process lives
------------------
     ethr =  7.14E-08,  avg # of iterations = 44.5

     negative rho (up, down):  9.877E-04 0.000E+00

     add environment contribution to local potential

     total cpu time spent up to now is     1981.7 secs

     total energy              =   -1022.52445796 Ry
     estimated scf accuracy    <       0.00121723 Ry

     total charge of GC-SCF    =       0.88570279 e
     the Fermi energy          =      -2.85593759 eV
                        (error :       0.04806241 eV)
     electrostatic embedding   =      -0.06936887 Ry
     cavitation energy         =       0.04449223 Ry
     electrolyte free energy   =      -0.00348298 Ry
     correction to one-el term =     -14.97341864 Ry

     iteration # 13     ecut=    80.00 Ry     beta= 0.20
     Davidson diagonalization with overlap

---- Real-time Memory Report at c_bands before calling an iterative solver
          1219 MiB given to the printing process from OS
             0 MiB allocation reported by mallinfo(arena+hblkhd)
        202254 MiB available memory on the node where the printing process lives
------------------
     ethr =  7.14E-08,  avg # of iterations = 51.6

     negative rho (up, down):  8.773E-04 0.000E+00

     add environment contribution to local potential

     total cpu time spent up to now is     2193.0 secs

     total energy              =   -1022.53105297 Ry
     estimated scf accuracy    <       0.00091917 Ry

     total charge of GC-SCF    =       0.93147921 e
     the Fermi energy          =      -2.72845345 eV
                        (error :       0.17554655 eV)
     electrostatic embedding   =      -0.07638093 Ry
     cavitation energy         =       0.04449223 Ry
     electrolyte free energy   =      -0.00259218 Ry
     correction to one-el term =     -16.78099510 Ry

     iteration # 14     ecut=    80.00 Ry     beta= 0.20
     Davidson diagonalization with overlap

---- Real-time Memory Report at c_bands before calling an iterative solver
          1219 MiB given to the printing process from OS
             0 MiB allocation reported by mallinfo(arena+hblkhd)
        202249 MiB available memory on the node where the printing process lives
------------------
     ethr =  7.14E-08,  avg # of iterations = 35.0

     negative rho (up, down):  8.032E-04 0.000E+00

     add environment contribution to local potential

     total cpu time spent up to now is     2350.8 secs

     total energy              =   -1022.53246439 Ry
     estimated scf accuracy    <       0.00004577 Ry

     total charge of GC-SCF    =       1.04673412 e
     the Fermi energy          =      -2.80049346 eV
                        (error :       0.10350654 eV)
     electrostatic embedding   =      -0.07979790 Ry
     cavitation energy         =       0.04449223 Ry
     electrolyte free energy   =      -0.00318460 Ry
     correction to one-el term =     -18.42931557 Ry

     iteration # 15     ecut=    80.00 Ry     beta= 0.20
     Davidson diagonalization with overlap

---- Real-time Memory Report at c_bands before calling an iterative solver
          1219 MiB given to the printing process from OS
             0 MiB allocation reported by mallinfo(arena+hblkhd)
        202327 MiB available memory on the node where the printing process lives
------------------
     ethr =  2.26E-08,  avg # of iterations = 25.0

     negative rho (up, down):  7.749E-04 0.000E+00

     add environment contribution to local potential

     total cpu time spent up to now is     2495.1 secs

     total energy              =   -1022.53500510 Ry
     estimated scf accuracy    <       0.00001568 Ry

     total charge of GC-SCF    =       1.09254563 e
     the Fermi energy          =      -2.81949854 eV
                        (error :       0.08450146 eV)
     electrostatic embedding   =      -0.09359817 Ry
     cavitation energy         =       0.04449223 Ry
     electrolyte free energy   =      -0.00356164 Ry
     correction to one-el term =     -22.95379274 Ry

     iteration # 16     ecut=    80.00 Ry     beta= 0.20
     Davidson diagonalization with overlap

---- Real-time Memory Report at c_bands before calling an iterative solver
          1219 MiB given to the printing process from OS
             0 MiB allocation reported by mallinfo(arena+hblkhd)
        202596 MiB available memory on the node where the printing process lives
------------------
     ethr =  7.73E-09,  avg # of iterations = 15.7

     negative rho (up, down):  7.754E-04 0.000E+00

     add environment contribution to local potential

     total cpu time spent up to now is     2600.1 secs

     total energy              =   -1022.53539734 Ry
     estimated scf accuracy    <       0.00002019 Ry

     total charge of GC-SCF    =       1.13271124 e
     the Fermi energy          =      -2.81657567 eV
                        (error :       0.08742433 eV)
     electrostatic embedding   =      -0.10010930 Ry
     cavitation energy         =       0.04449223 Ry
     electrolyte free energy   =      -0.00362158 Ry
     correction to one-el term =     -24.52197496 Ry

     iteration # 17     ecut=    80.00 Ry     beta= 0.20
     Davidson diagonalization with overlap

---- Real-time Memory Report at c_bands before calling an iterative solver
          1219 MiB given to the printing process from OS
             0 MiB allocation reported by mallinfo(arena+hblkhd)
        202481 MiB available memory on the node where the printing process lives
------------------
     ethr =  7.73E-09,  avg # of iterations = 31.2

     negative rho (up, down):  9.155E-04 0.000E+00

     add environment contribution to local potential

     total cpu time spent up to now is     2748.4 secs

     total energy              =   -1022.53492166 Ry
     estimated scf accuracy    <       0.00001749 Ry

     total charge of GC-SCF    =       1.26805953 e
     the Fermi energy          =      -2.83394301 eV
                        (error :       0.07005699 eV)
     electrostatic embedding   =      -0.10543327 Ry
     cavitation energy         =       0.04449223 Ry
     electrolyte free energy   =      -0.00383499 Ry
     correction to one-el term =     -25.82157609 Ry

     iteration # 18     ecut=    80.00 Ry     beta= 0.20
     Davidson diagonalization with overlap

---- Real-time Memory Report at c_bands before calling an iterative solver
          1219 MiB given to the printing process from OS
             0 MiB allocation reported by mallinfo(arena+hblkhd)
        202321 MiB available memory on the node where the printing process lives
------------------
     c_bands:  1 eigenvalues not converged
     ethr =  7.73E-09,  avg # of iterations = 62.3

     negative rho (up, down):  9.984E-04 0.000E+00

     add environment contribution to local potential

     total cpu time spent up to now is     3006.0 secs

     total energy              =   -1022.53642701 Ry
     estimated scf accuracy    <       0.00001689 Ry

     total charge of GC-SCF    =       1.29478172 e
     the Fermi energy          =      -2.84527008 eV
                        (error :       0.05872992 eV)
     electrostatic embedding   =      -0.12737055 Ry
     cavitation energy         =       0.04449223 Ry
     electrolyte free energy   =      -0.00423884 Ry
     correction to one-el term =     -30.68997573 Ry

     iteration # 19     ecut=    80.00 Ry     beta= 0.20
     Davidson diagonalization with overlap

---- Real-time Memory Report at c_bands before calling an iterative solver
          1219 MiB given to the printing process from OS
             0 MiB allocation reported by mallinfo(arena+hblkhd)
        202157 MiB available memory on the node where the printing process lives
------------------
     ethr =  7.73E-09,  avg # of iterations = 17.2

     negative rho (up, down):  8.046E-04 0.000E+00

     add environment contribution to local potential

     total cpu time spent up to now is     3113.1 secs

     total energy              =   -1022.53625360 Ry
     estimated scf accuracy    <       0.00000602 Ry

     total charge of GC-SCF    =       1.37423708 e
     the Fermi energy          =      -2.85667004 eV
                        (error :       0.04732996 eV)
     electrostatic embedding   =      -0.13188780 Ry
     cavitation energy         =       0.04449223 Ry
     electrolyte free energy   =      -0.00439070 Ry
     correction to one-el term =     -31.57060233 Ry

     iteration # 20     ecut=    80.00 Ry     beta= 0.20
     Davidson diagonalization with overlap

---- Real-time Memory Report at c_bands before calling an iterative solver
          1219 MiB given to the printing process from OS
             0 MiB allocation reported by mallinfo(arena+hblkhd)
        202516 MiB available memory on the node where the printing process lives
------------------
     c_bands:  1 eigenvalues not converged
     ethr =  2.97E-09,  avg # of iterations = 46.9

     negative rho (up, down):  7.709E-04 0.000E+00

     add environment contribution to local potential

     total cpu time spent up to now is     3316.9 secs

     total energy              =   -1022.53683374 Ry
     estimated scf accuracy    <       0.00000811 Ry

     total charge of GC-SCF    =       1.46406705 e
     the Fermi energy          =      -2.86624259 eV
                        (error :       0.03775741 eV)
     electrostatic embedding   =      -0.14760107 Ry
     cavitation energy         =       0.04449223 Ry
     electrolyte free energy   =      -0.00467667 Ry
     correction to one-el term =     -34.46517292 Ry

     iteration # 21     ecut=    80.00 Ry     beta= 0.20
     Davidson diagonalization with overlap

---- Real-time Memory Report at c_bands before calling an iterative solver
          1219 MiB given to the printing process from OS
             0 MiB allocation reported by mallinfo(arena+hblkhd)
        202174 MiB available memory on the node where the printing process lives
------------------
     ethr =  2.97E-09,  avg # of iterations = 47.3

     negative rho (up, down):  7.534E-04 0.000E+00

     add environment contribution to local potential

     total cpu time spent up to now is     3526.4 secs

     total energy              =   -1022.53700478 Ry
     estimated scf accuracy    <       0.00000252 Ry

     total charge of GC-SCF    =       1.51390903 e
     the Fermi energy          =      -2.88643642 eV
                        (error :       0.01756358 eV)
     electrostatic embedding   =      -0.16644805 Ry
     cavitation energy         =       0.04449223 Ry
     electrolyte free energy   =      -0.00507285 Ry
     correction to one-el term =     -37.53600207 Ry

     iteration # 22     ecut=    80.00 Ry     beta= 0.20
     Davidson diagonalization with overlap

---- Real-time Memory Report at c_bands before calling an iterative solver
          1219 MiB given to the printing process from OS
             0 MiB allocation reported by mallinfo(arena+hblkhd)
        202129 MiB available memory on the node where the printing process lives
------------------
     ethr =  1.24E-09,  avg # of iterations = 45.6

     negative rho (up, down):  7.539E-04 0.000E+00

     add environment contribution to local potential

     total cpu time spent up to now is     3732.3 secs

     total energy              =   -1022.53706768 Ry
     estimated scf accuracy    <       0.00000084 Ry

     total charge of GC-SCF    =       1.53840476 e
     the Fermi energy          =      -2.89566667 eV
                        (error :       0.00833333 eV)
     electrostatic embedding   =      -0.17781654 Ry
     cavitation energy         =       0.04449223 Ry
     electrolyte free energy   =      -0.00530126 Ry
     correction to one-el term =     -39.35917703 Ry

     iteration # 23     ecut=    80.00 Ry     beta= 0.20
     Davidson diagonalization with overlap

---- Real-time Memory Report at c_bands before calling an iterative solver
          1219 MiB given to the printing process from OS
             0 MiB allocation reported by mallinfo(arena+hblkhd)
        202154 MiB available memory on the node where the printing process lives
------------------
     ethr =  4.15E-10,  avg # of iterations = 46.2

     negative rho (up, down):  7.437E-04 0.000E+00

     add environment contribution to local potential

     total cpu time spent up to now is     3927.5 secs

     total energy              =   -1022.53707482 Ry
     estimated scf accuracy    <       0.00000050 Ry

     total charge of GC-SCF    =       1.54713659 e
     the Fermi energy          =      -2.89861096 eV
                        (error :       0.00538904 eV)
     electrostatic embedding   =      -0.18355722 Ry
     cavitation energy         =       0.04449223 Ry
     electrolyte free energy   =      -0.00539299 Ry
     correction to one-el term =     -40.18991030 Ry

     iteration # 24     ecut=    80.00 Ry     beta= 0.20
     Davidson diagonalization with overlap

---- Real-time Memory Report at c_bands before calling an iterative solver
          1219 MiB given to the printing process from OS
             0 MiB allocation reported by mallinfo(arena+hblkhd)
        202170 MiB available memory on the node where the printing process lives
------------------
     ethr =  2.46E-10,  avg # of iterations = 18.2

     negative rho (up, down):  7.449E-04 0.000E+00

     add environment contribution to local potential

     total cpu time spent up to now is     4045.4 secs

     total energy              =   -1022.53708084 Ry
     estimated scf accuracy    <       0.00000040 Ry

     total charge of GC-SCF    =       1.55034636 e
     the Fermi energy          =      -2.90062191 eV
                        (error :       0.00337809 eV)
     electrostatic embedding   =      -0.18562279 Ry
     cavitation energy         =       0.04449223 Ry
     electrolyte free energy   =      -0.00543822 Ry
     correction to one-el term =     -40.52187842 Ry

     iteration # 25     ecut=    80.00 Ry     beta= 0.20
     Davidson diagonalization with overlap

---- Real-time Memory Report at c_bands before calling an iterative solver
          1219 MiB given to the printing process from OS
             0 MiB allocation reported by mallinfo(arena+hblkhd)
        202492 MiB available memory on the node where the printing process lives
------------------
     ethr =  1.99E-10,  avg # of iterations = 17.8

     negative rho (up, down):  7.440E-04 0.000E+00

     add environment contribution to local potential

     total cpu time spent up to now is     4150.7 secs

     total energy              =   -1022.53708272 Ry
     estimated scf accuracy    <       0.00000035 Ry

     total charge of GC-SCF    =       1.56066057 e
     the Fermi energy          =      -2.90122473 eV
                        (error :       0.00277527 eV)
     electrostatic embedding   =      -0.18635634 Ry
     cavitation energy         =       0.04449223 Ry
     electrolyte free energy   =      -0.00545290 Ry
     correction to one-el term =     -40.63710671 Ry

     iteration # 26     ecut=    80.00 Ry     beta= 0.20
     Davidson diagonalization with overlap

---- Real-time Memory Report at c_bands before calling an iterative solver
          1219 MiB given to the printing process from OS
             0 MiB allocation reported by mallinfo(arena+hblkhd)
        202405 MiB available memory on the node where the printing process lives
------------------
     ethr =  1.73E-10,  avg # of iterations = 22.5

     negative rho (up, down):  7.470E-04 0.000E+00

     add environment contribution to local potential

     total cpu time spent up to now is     4276.4 secs

     total energy              =   -1022.53708727 Ry
     estimated scf accuracy    <       0.00000008 Ry

     total charge of GC-SCF    =       1.56997843 e
     the Fermi energy          =      -2.90268856 eV
                        (error :       0.00131144 eV)
     electrostatic embedding   =      -0.18880200 Ry
     cavitation energy         =       0.04449223 Ry
     electrolyte free energy   =      -0.00549825 Ry
     correction to one-el term =     -41.02285475 Ry

     iteration # 27     ecut=    80.00 Ry     beta= 0.20
     Davidson diagonalization with overlap

---- Real-time Memory Report at c_bands before calling an iterative solver
          1219 MiB given to the printing process from OS
             0 MiB allocation reported by mallinfo(arena+hblkhd)
        202399 MiB available memory on the node where the printing process lives
------------------
     c_bands:  1 eigenvalues not converged
     c_bands:  1 eigenvalues not converged
     ethr =  3.89E-11,  avg # of iterations = 55.1

     negative rho (up, down):  7.279E-04 0.000E+00

     total cpu time spent up to now is     4494.1 secs

     End of self-consistent calculation

          k = 0.0000 0.0000 0.0000 (425513 PWs)   bands (ev):

   -50.7149 -50.7148 -50.7148 -50.7148 -50.4815 -50.4814 -50.4814 -50.4814
   -50.4325 -50.4324 -50.4324 -50.4323 -49.6247 -49.6247 -49.6246 -49.6246
   -49.5996 -49.5996 -49.5994 -49.5994 -49.5845 -49.5845 -49.5842 -49.5842
   -49.4426 -49.4406 -49.4376 -49.4365 -49.4309 -49.4307 -49.4304 -49.4302
   -49.4244 -49.4230 -49.4210 -49.4208 -49.4156 -49.4131 -49.4130 -49.4122
   -49.4118 -49.4103 -49.4101 -49.4094 -49.4073 -49.4064 -49.4062 -49.4061
   -49.4022 -49.4021 -49.4012 -49.3990 -49.3951 -49.3947 -49.3945 -49.3944
   -49.3922 -49.3921 -49.3914 -49.3912 -49.3577 -49.3577 -49.3571 -49.3571
   -49.3009 -49.3009 -49.3007 -49.3007  -6.3751  -6.0504  -5.4863  -5.2613
    -5.2563  -5.1275  -5.1146  -4.9355  -4.9223  -4.8037  -4.7929  -4.7327
    -4.5563  -4.5546  -4.3556  -4.3403  -4.2960  -4.2319  -4.2204  -4.1486
    -3.8965  -3.6814  -3.6604  -3.5817  -3.5587  -3.5131  -3.4986  -3.4412
    -3.4025  -3.1696  -3.1432  -2.9188  -2.9057  -2.8933  -2.7596  -2.7074
    -2.6320  -2.5862  -2.5685  -2.5365  -2.5265  -2.2778  -2.2173  -2.2115
    -2.1389  -2.0762  -1.9856  -1.9726  -1.9051  -1.8534  -1.8493  -1.8297
    -1.7732  -1.7419  -1.7189  -1.6466  -1.6270  -1.6258  -1.4947  -1.1575
    -1.1462  -1.0775  -1.0309  -1.0151  -0.9641  -0.9484  -0.9054  -0.8616
    -0.6227  -0.5653  -0.3748  -0.3385  -0.2185  -0.1388  -0.1002   0.0019
     0.0266   0.0865   0.0892   0.1391   0.1505   0.2192   0.2683   0.3788
     0.4101

     occupation numbers 
     1.0000   1.0000   1.0000   1.0000   1.0000   1.0000   1.0000   1.0000
     1.0000   1.0000   1.0000   1.0000   1.0000   1.0000   1.0000   1.0000
     1.0000   1.0000   1.0000   1.0000   1.0000   1.0000   1.0000   1.0000
     1.0000   1.0000   1.0000   1.0000   1.0000   1.0000   1.0000   1.0000
     1.0000   1.0000   1.0000   1.0000   1.0000   1.0000   1.0000   1.0000
     1.0000   1.0000   1.0000   1.0000   1.0000   1.0000   1.0000   1.0000
     1.0000   1.0000   1.0000   1.0000   1.0000   1.0000   1.0000   1.0000
     1.0000   1.0000   1.0000   1.0000   1.0000   1.0000   1.0000   1.0000
     1.0000   1.0000   1.0000   1.0000   1.0000   1.0000   1.0000   1.0000
     1.0000   1.0000   1.0000   1.0000   1.0000   1.0000   1.0000   1.0000
     1.0000   1.0000   1.0000   1.0000   1.0000   1.0000   1.0000   1.0000
     1.0000   1.0000   1.0000   1.0000   1.0000   1.0000   1.0000   1.0000
     1.0000   1.0457   1.0637   0.4767   0.4082   0.3477   0.0236   0.0050
     0.0003   0.0000   0.0000   0.0000   0.0000   0.0000   0.0000   0.0000
     0.0000   0.0000   0.0000   0.0000   0.0000   0.0000   0.0000   0.0000
     0.0000   0.0000   0.0000   0.0000   0.0000   0.0000   0.0000   0.0000
     0.0000   0.0000   0.0000   0.0000   0.0000   0.0000   0.0000   0.0000
     0.0000   0.0000   0.0000   0.0000   0.0000   0.0000   0.0000   0.0000
     0.0000   0.0000   0.0000   0.0000   0.0000   0.0000   0.0000   0.0000
     0.0000

          k = 0.0000 0.1386 0.0000 (425461 PWs)   bands (ev):

   -50.7149 -50.7148 -50.7148 -50.7148 -50.4815 -50.4814 -50.4814 -50.4814
   -50.4325 -50.4324 -50.4324 -50.4323 -49.6247 -49.6247 -49.6246 -49.6246
   -49.5996 -49.5996 -49.5994 -49.5994 -49.5845 -49.5845 -49.5842 -49.5842
   -49.4425 -49.4406 -49.4376 -49.4365 -49.4309 -49.4307 -49.4304 -49.4302
   -49.4246 -49.4228 -49.4210 -49.4208 -49.4156 -49.4131 -49.4131 -49.4124
   -49.4114 -49.4104 -49.4100 -49.4094 -49.4072 -49.4064 -49.4063 -49.4062
   -49.4022 -49.4021 -49.4012 -49.3990 -49.3951 -49.3947 -49.3945 -49.3945
   -49.3922 -49.3921 -49.3914 -49.3912 -49.3577 -49.3577 -49.3571 -49.3571
   -49.3009 -49.3009 -49.3007 -49.3007  -6.3524  -6.0276  -5.5547  -5.4644
    -5.2228  -5.1793  -5.0172  -4.9185  -4.8568  -4.7735  -4.7270  -4.6915
    -4.6253  -4.5866  -4.4556  -4.2976  -4.2766  -4.1238  -4.0147  -3.9553
    -3.9243  -3.8754  -3.8399  -3.8035  -3.5373  -3.4956  -3.4061  -3.2974
    -3.2522  -3.1404  -3.1212  -3.0459  -2.8953  -2.8202  -2.7682  -2.7495
    -2.6827  -2.6261  -2.5542  -2.5346  -2.4385  -2.3794  -2.3577  -2.3347
    -2.2764  -2.2052  -2.0740  -2.0013  -1.9788  -1.9718  -1.9204  -1.8477
    -1.8191  -1.7454  -1.5340  -1.5242  -1.4356  -1.3579  -1.2733  -1.2003
    -1.1796  -1.1712  -1.0411  -1.0206  -1.0170  -0.8703  -0.7864  -0.7811
    -0.6128  -0.3970  -0.3711  -0.2897  -0.1606  -0.1343  -0.1074  -0.0691
    -0.0088   0.0652   0.0711   0.1658   0.1679   0.1813   0.2402   0.2780
     0.3604

     occupation numbers 
     1.0000   1.0000   1.0000   1.0000   1.0000   1.0000   1.0000   1.0000
     1.0000   1.0000   1.0000   1.0000   1.0000   1.0000   1.0000   1.0000
     1.0000   1.0000   1.0000   1.0000   1.0000   1.0000   1.0000   1.0000
     1.0000   1.0000   1.0000   1.0000   1.0000   1.0000   1.0000   1.0000
     1.0000   1.0000   1.0000   1.0000   1.0000   1.0000   1.0000   1.0000
     1.0000   1.0000   1.0000   1.0000   1.0000   1.0000   1.0000   1.0000
     1.0000   1.0000   1.0000   1.0000   1.0000   1.0000   1.0000   1.0000
     1.0000   1.0000   1.0000   1.0000   1.0000   1.0000   1.0000   1.0000
     1.0000   1.0000   1.0000   1.0000   1.0000   1.0000   1.0000   1.0000
     1.0000   1.0000   1.0000   1.0000   1.0000   1.0000   1.0000   1.0000
     1.0000   1.0000   1.0000   1.0000   1.0000   1.0000   1.0000   1.0000
     1.0000   1.0000   1.0000   1.0000   1.0000   1.0000   1.0000   1.0024
     1.0085   1.0656   1.0767   1.0387   0.3570   0.0995   0.0296   0.0179
     0.0022   0.0003   0.0000   0.0000   0.0000   0.0000   0.0000   0.0000
     0.0000   0.0000   0.0000   0.0000   0.0000   0.0000   0.0000   0.0000
     0.0000   0.0000   0.0000   0.0000   0.0000   0.0000   0.0000   0.0000
     0.0000   0.0000   0.0000   0.0000   0.0000   0.0000   0.0000   0.0000
     0.0000   0.0000   0.0000   0.0000   0.0000   0.0000   0.0000   0.0000
     0.0000   0.0000   0.0000   0.0000   0.0000   0.0000   0.0000   0.0000
     0.0000

          k = 0.0000 0.2772 0.0000 (425344 PWs)   bands (ev):

   -50.7149 -50.7148 -50.7148 -50.7148 -50.4815 -50.4814 -50.4814 -50.4814
   -50.4325 -50.4324 -50.4324 -50.4323 -49.6247 -49.6247 -49.6246 -49.6246
   -49.5996 -49.5996 -49.5994 -49.5994 -49.5845 -49.5845 -49.5842 -49.5842
   -49.4425 -49.4406 -49.4376 -49.4365 -49.4309 -49.4307 -49.4304 -49.4302
   -49.4249 -49.4225 -49.4210 -49.4208 -49.4156 -49.4134 -49.4131 -49.4125
   -49.4109 -49.4104 -49.4100 -49.4095 -49.4072 -49.4064 -49.4064 -49.4062
   -49.4022 -49.4021 -49.4012 -49.3990 -49.3951 -49.3947 -49.3946 -49.3945
   -49.3922 -49.3921 -49.3914 -49.3912 -49.3577 -49.3577 -49.3571 -49.3571
   -49.3009 -49.3009 -49.3007 -49.3007  -6.2842  -5.9598  -5.8045  -5.4861
    -5.3822  -5.1908  -4.9501  -4.9092  -4.8771  -4.8528  -4.6289  -4.6263
    -4.5418  -4.5244  -4.2900  -4.2067  -4.1536  -4.1392  -4.0542  -4.0008
    -3.9691  -3.8113  -3.7709  -3.6598  -3.6366  -3.5336  -3.3161  -3.2776
    -3.2217  -3.1835  -3.1090  -3.0467  -2.9651  -2.9205  -2.8142  -2.7998
    -2.7926  -2.6768  -2.6359  -2.5740  -2.4806  -2.4761  -2.4421  -2.4283
    -2.3870  -2.2582  -2.2009  -2.0776  -2.0254  -1.9847  -1.9316  -1.8545
    -1.7749  -1.6334  -1.5454  -1.3497  -1.3330  -1.3307  -1.2054  -1.2024
    -1.1745  -1.0525  -1.0302  -0.9633  -0.8678  -0.7612  -0.5969  -0.5395
    -0.5056  -0.3887  -0.3676  -0.2668  -0.2163  -0.1991  -0.1504  -0.0940
    -0.0127   0.0193   0.0222   0.0232   0.1889   0.2042   0.2746   0.3474
     0.3489

     occupation numbers 
     1.0000   1.0000   1.0000   1.0000   1.0000   1.0000   1.0000   1.0000
     1.0000   1.0000   1.0000   1.0000   1.0000   1.0000   1.0000   1.0000
     1.0000   1.0000   1.0000   1.0000   1.0000   1.0000   1.0000   1.0000
     1.0000   1.0000   1.0000   1.0000   1.0000   1.0000   1.0000   1.0000
     1.0000   1.0000   1.0000   1.0000   1.0000   1.0000   1.0000   1.0000
     1.0000   1.0000   1.0000   1.0000   1.0000   1.0000   1.0000   1.0000
     1.0000   1.0000   1.0000   1.0000   1.0000   1.0000   1.0000   1.0000
     1.0000   1.0000   1.0000   1.0000   1.0000   1.0000   1.0000   1.0000
     1.0000   1.0000   1.0000   1.0000   1.0000   1.0000   1.0000   1.0000
     1.0000   1.0000   1.0000   1.0000   1.0000   1.0000   1.0000   1.0000
     1.0000   1.0000   1.0000   1.0000   1.0000   1.0000   1.0000   1.0000
     1.0000   1.0000   1.0000   1.0000   1.0000   1.0000   1.0013   1.0043
     1.0176   1.0367   1.0815   1.0403   0.7300   0.4857   0.0877   0.0639
     0.0541   0.0018   0.0004   0.0000   0.0000   0.0000   0.0000   0.0000
     0.0000   0.0000   0.0000   0.0000   0.0000   0.0000   0.0000   0.0000
     0.0000   0.0000   0.0000   0.0000   0.0000   0.0000   0.0000   0.0000
     0.0000   0.0000   0.0000   0.0000   0.0000   0.0000   0.0000   0.0000
     0.0000   0.0000   0.0000   0.0000   0.0000   0.0000   0.0000   0.0000
     0.0000   0.0000   0.0000   0.0000   0.0000   0.0000   0.0000   0.0000
     0.0000

          k = 0.0000 0.4158 0.0000 (425441 PWs)   bands (ev):

   -50.7149 -50.7148 -50.7148 -50.7148 -50.4815 -50.4814 -50.4814 -50.4814
   -50.4325 -50.4324 -50.4324 -50.4323 -49.6247 -49.6247 -49.6246 -49.6246
   -49.5996 -49.5996 -49.5994 -49.5994 -49.5845 -49.5845 -49.5842 -49.5842
   -49.4425 -49.4406 -49.4376 -49.4365 -49.4309 -49.4307 -49.4304 -49.4302
   -49.4252 -49.4224 -49.4210 -49.4208 -49.4156 -49.4136 -49.4131 -49.4125
   -49.4105 -49.4103 -49.4101 -49.4097 -49.4071 -49.4065 -49.4064 -49.4062
   -49.4022 -49.4021 -49.4012 -49.3990 -49.3951 -49.3947 -49.3946 -49.3945
   -49.3922 -49.3921 -49.3914 -49.3912 -49.3577 -49.3577 -49.3571 -49.3571
   -49.3009 -49.3009 -49.3007 -49.3007  -6.1711  -6.0101  -5.8454  -5.6835
    -5.2745  -5.1562  -5.1116  -5.0743  -4.8332  -4.7533  -4.6671  -4.5125
    -4.4331  -4.3603  -4.3433  -4.2514  -4.1852  -4.0972  -4.0768  -3.7885
    -3.7773  -3.6741  -3.6573  -3.6233  -3.5708  -3.4764  -3.4564  -3.3862
    -3.3299  -3.3110  -3.3053  -3.2204  -3.0187  -2.9806  -2.8368  -2.8247
    -2.7071  -2.6819  -2.6133  -2.5948  -2.5858  -2.5520  -2.5357  -2.3949
    -2.3680  -2.3101  -2.2495  -2.1360  -2.0407  -2.0339  -1.9211  -1.6740
    -1.6540  -1.5792  -1.4983  -1.4849  -1.3949  -1.2712  -1.2242  -1.1538
    -1.0321  -0.9817  -0.8840  -0.8758  -0.8528  -0.8465  -0.6755  -0.6242
    -0.5102  -0.4520  -0.3350  -0.2984  -0.2079  -0.1085  -0.0530   0.0194
     0.0937   0.1293   0.1333   0.1429   0.1621   0.1804   0.3064   0.3188
     0.3296

     occupation numbers 
     1.0000   1.0000   1.0000   1.0000   1.0000   1.0000   1.0000   1.0000
     1.0000   1.0000   1.0000   1.0000   1.0000   1.0000   1.0000   1.0000
     1.0000   1.0000   1.0000   1.0000   1.0000   1.0000   1.0000   1.0000
     1.0000   1.0000   1.0000   1.0000   1.0000   1.0000   1.0000   1.0000
     1.0000   1.0000   1.0000   1.0000   1.0000   1.0000   1.0000   1.0000
     1.0000   1.0000   1.0000   1.0000   1.0000   1.0000   1.0000   1.0000
     1.0000   1.0000   1.0000   1.0000   1.0000   1.0000   1.0000   1.0000
     1.0000   1.0000   1.0000   1.0000   1.0000   1.0000   1.0000   1.0000
     1.0000   1.0000   1.0000   1.0000   1.0000   1.0000   1.0000   1.0000
     1.0000   1.0000   1.0000   1.0000   1.0000   1.0000   1.0000   1.0000
     1.0000   1.0000   1.0000   1.0000   1.0000   1.0000   1.0000   1.0000
     1.0000   1.0000   1.0000   1.0000   1.0000   1.0000   1.0000   1.0001
     1.0008   1.0016   1.0019   1.0181   0.9673   0.8089   0.1385   0.1091
     0.0050   0.0021   0.0002   0.0001   0.0000   0.0000   0.0000   0.0000
     0.0000   0.0000   0.0000   0.0000   0.0000   0.0000   0.0000   0.0000
     0.0000   0.0000   0.0000   0.0000   0.0000   0.0000   0.0000   0.0000
     0.0000   0.0000   0.0000   0.0000   0.0000   0.0000   0.0000   0.0000
     0.0000   0.0000   0.0000   0.0000   0.0000   0.0000   0.0000   0.0000
     0.0000   0.0000   0.0000   0.0000   0.0000   0.0000   0.0000   0.0000
     0.0000

          k = 0.1429 0.0346 0.0000 (425499 PWs)   bands (ev):

   -50.7149 -50.7148 -50.7148 -50.7148 -50.4815 -50.4814 -50.4814 -50.4814
   -50.4325 -50.4324 -50.4324 -50.4323 -49.6247 -49.6247 -49.6246 -49.6246
   -49.5996 -49.5995 -49.5994 -49.5994 -49.5845 -49.5845 -49.5843 -49.5842
   -49.4425 -49.4407 -49.4375 -49.4366 -49.4309 -49.4307 -49.4304 -49.4302
   -49.4243 -49.4229 -49.4214 -49.4208 -49.4154 -49.4131 -49.4129 -49.4122
   -49.4118 -49.4105 -49.4101 -49.4095 -49.4073 -49.4066 -49.4062 -49.4061
   -49.4022 -49.4018 -49.4013 -49.3991 -49.3951 -49.3947 -49.3945 -49.3945
   -49.3921 -49.3921 -49.3915 -49.3912 -49.3577 -49.3576 -49.3571 -49.3571
   -49.3009 -49.3009 -49.3008 -49.3007  -6.3495  -6.0248  -5.4607  -5.4532
    -5.3129  -5.1539  -5.1295  -4.9827  -4.8240  -4.8121  -4.7383  -4.7074
    -4.5782  -4.4762  -4.4035  -4.4003  -4.2500  -4.2435  -3.9530  -3.9029
    -3.8886  -3.8732  -3.8539  -3.7431  -3.6189  -3.5535  -3.4680  -3.3305
    -3.1634  -3.0847  -3.0694  -2.9755  -2.9332  -2.8862  -2.7375  -2.7351
    -2.5587  -2.5505  -2.5474  -2.4565  -2.4050  -2.3467  -2.2862  -2.2088
    -2.1865  -2.1177  -2.0912  -2.0302  -1.9995  -1.9288  -1.9046  -1.8749
    -1.8383  -1.8058  -1.6892  -1.6315  -1.5523  -1.5189  -1.3910  -1.3479
    -1.2703  -1.2232  -1.1510  -1.0459  -0.9533  -0.9107  -0.8751  -0.8747
    -0.6272  -0.4547  -0.3782  -0.3647  -0.3577  -0.1230  -0.1068  -0.0494
    -0.0009   0.0293   0.1265   0.1405   0.1931   0.2395   0.3531   0.4205
     0.4750

     occupation numbers 
     1.0000   1.0000   1.0000   1.0000   1.0000   1.0000   1.0000   1.0000
     1.0000   1.0000   1.0000   1.0000   1.0000   1.0000   1.0000   1.0000
     1.0000   1.0000   1.0000   1.0000   1.0000   1.0000   1.0000   1.0000
     1.0000   1.0000   1.0000   1.0000   1.0000   1.0000   1.0000   1.0000
     1.0000   1.0000   1.0000   1.0000   1.0000   1.0000   1.0000   1.0000
     1.0000   1.0000   1.0000   1.0000   1.0000   1.0000   1.0000   1.0000
     1.0000   1.0000   1.0000   1.0000   1.0000   1.0000   1.0000   1.0000
     1.0000   1.0000   1.0000   1.0000   1.0000   1.0000   1.0000   1.0000
     1.0000   1.0000   1.0000   1.0000   1.0000   1.0000   1.0000   1.0000
     1.0000   1.0000   1.0000   1.0000   1.0000   1.0000   1.0000   1.0000
     1.0000   1.0000   1.0000   1.0000   1.0000   1.0000   1.0000   1.0000
     1.0000   1.0000   1.0000   1.0000   1.0000   1.0000   1.0000   1.0008
     1.0498   1.0813   1.0719   0.7836   0.5552   0.3151   0.0127   0.0118
     0.0000   0.0000   0.0000   0.0000   0.0000   0.0000   0.0000   0.0000
     0.0000   0.0000   0.0000   0.0000   0.0000   0.0000   0.0000   0.0000
     0.0000   0.0000   0.0000   0.0000   0.0000   0.0000   0.0000   0.0000
     0.0000   0.0000   0.0000   0.0000   0.0000   0.0000   0.0000   0.0000
     0.0000   0.0000   0.0000   0.0000   0.0000   0.0000   0.0000   0.0000
     0.0000   0.0000   0.0000   0.0000   0.0000   0.0000   0.0000   0.0000
     0.0000

          k = 0.1429 0.1732 0.0000 (425402 PWs)   bands (ev):

   -50.7149 -50.7148 -50.7148 -50.7148 -50.4815 -50.4814 -50.4814 -50.4814
   -50.4325 -50.4324 -50.4324 -50.4323 -49.6247 -49.6247 -49.6246 -49.6246
   -49.5996 -49.5995 -49.5994 -49.5994 -49.5845 -49.5845 -49.5843 -49.5842
   -49.4425 -49.4407 -49.4375 -49.4366 -49.4309 -49.4307 -49.4304 -49.4302
   -49.4245 -49.4227 -49.4213 -49.4209 -49.4153 -49.4133 -49.4130 -49.4124
   -49.4113 -49.4106 -49.4100 -49.4095 -49.4072 -49.4067 -49.4063 -49.4060
   -49.4022 -49.4018 -49.4013 -49.3991 -49.3951 -49.3947 -49.3946 -49.3945
   -49.3921 -49.3921 -49.3915 -49.3912 -49.3577 -49.3576 -49.3571 -49.3571
   -49.3009 -49.3009 -49.3008 -49.3007  -6.3154  -5.9907  -5.5972  -5.4993
    -5.4290  -5.2635  -5.1755  -4.8041  -4.7246  -4.6291  -4.6244  -4.6146
    -4.5415  -4.4730  -4.4586  -4.2968  -4.2349  -4.2043  -4.1257  -3.9515
    -3.9034  -3.8927  -3.8786  -3.7885  -3.6967  -3.6185  -3.5231  -3.3072
    -3.1462  -3.1035  -3.0782  -2.9303  -2.8489  -2.7595  -2.7466  -2.7202
    -2.6793  -2.5549  -2.5545  -2.5248  -2.4310  -2.4072  -2.3971  -2.3607
    -2.2128  -2.1764  -2.1304  -2.0504  -2.0267  -2.0139  -1.8634  -1.8287
    -1.8064  -1.7627  -1.6762  -1.6014  -1.4783  -1.2835  -1.2783  -1.2549
    -1.1553  -1.0938  -1.0878  -0.9887  -0.9823  -0.9003  -0.8460  -0.8156
    -0.7690  -0.4888  -0.3788  -0.2694  -0.2371  -0.1943  -0.0690  -0.0304
    -0.0153   0.0465   0.0972   0.1085   0.1808   0.2540   0.2552   0.2739
     0.3628

     occupation numbers 
     1.0000   1.0000   1.0000   1.0000   1.0000   1.0000   1.0000   1.0000
     1.0000   1.0000   1.0000   1.0000   1.0000   1.0000   1.0000   1.0000
     1.0000   1.0000   1.0000   1.0000   1.0000   1.0000   1.0000   1.0000
     1.0000   1.0000   1.0000   1.0000   1.0000   1.0000   1.0000   1.0000
     1.0000   1.0000   1.0000   1.0000   1.0000   1.0000   1.0000   1.0000
     1.0000   1.0000   1.0000   1.0000   1.0000   1.0000   1.0000   1.0000
     1.0000   1.0000   1.0000   1.0000   1.0000   1.0000   1.0000   1.0000
     1.0000   1.0000   1.0000   1.0000   1.0000   1.0000   1.0000   1.0000
     1.0000   1.0000   1.0000   1.0000   1.0000   1.0000   1.0000   1.0000
     1.0000   1.0000   1.0000   1.0000   1.0000   1.0000   1.0000   1.0000
     1.0000   1.0000   1.0000   1.0000   1.0000   1.0000   1.0000   1.0000
     1.0000   1.0000   1.0000   1.0000   1.0000   1.0000   1.0000   1.0018
     1.0617   1.0827   1.0784   0.5392   0.1732   0.0235   0.0165   0.0075
     0.0019   0.0000   0.0000   0.0000   0.0000   0.0000   0.0000   0.0000
     0.0000   0.0000   0.0000   0.0000   0.0000   0.0000   0.0000   0.0000
     0.0000   0.0000   0.0000   0.0000   0.0000   0.0000   0.0000   0.0000
     0.0000   0.0000   0.0000   0.0000   0.0000   0.0000   0.0000   0.0000
     0.0000   0.0000   0.0000   0.0000   0.0000   0.0000   0.0000   0.0000
     0.0000   0.0000   0.0000   0.0000   0.0000   0.0000   0.0000   0.0000
     0.0000

          k = 0.1429 0.3118 0.0000 (425381 PWs)   bands (ev):

   -50.7149 -50.7148 -50.7148 -50.7148 -50.4815 -50.4814 -50.4814 -50.4814
   -50.4325 -50.4324 -50.4324 -50.4323 -49.6247 -49.6247 -49.6246 -49.6246
   -49.5996 -49.5995 -49.5994 -49.5994 -49.5845 -49.5845 -49.5843 -49.5842
   -49.4424 -49.4407 -49.4375 -49.4366 -49.4309 -49.4307 -49.4304 -49.4302
   -49.4249 -49.4224 -49.4213 -49.4209 -49.4153 -49.4135 -49.4130 -49.4124
   -49.4108 -49.4106 -49.4100 -49.4096 -49.4072 -49.4066 -49.4064 -49.4060
   -49.4022 -49.4018 -49.4012 -49.3991 -49.3951 -49.3947 -49.3946 -49.3945
   -49.3921 -49.3921 -49.3915 -49.3912 -49.3577 -49.3576 -49.3571 -49.3571
   -49.3009 -49.3009 -49.3008 -49.3007  -6.2359  -5.9122  -5.8350  -5.5133
    -5.4993  -5.3374  -5.1755  -4.9391  -4.6245  -4.6145  -4.5788  -4.5415
    -4.4586  -4.4001  -4.2970  -4.2349  -4.2042  -4.1703  -4.1256  -4.0805
    -3.9034  -3.8786  -3.7235  -3.6972  -3.6182  -3.5230  -3.5140  -3.3084
    -3.3072  -3.2223  -3.1030  -2.9310  -2.9160  -2.8491  -2.8112  -2.7593
    -2.7462  -2.6548  -2.6321  -2.5549  -2.5248  -2.4712  -2.4311  -2.3972
    -2.2742  -2.2294  -2.2128  -2.1315  -2.0130  -1.9776  -1.8069  -1.7624
    -1.7608  -1.7446  -1.6008  -1.5953  -1.4006  -1.3319  -1.2782  -1.1879
    -1.0887  -0.9920  -0.9891  -0.9819  -0.9545  -0.8995  -0.7681  -0.7060
    -0.6446  -0.5494  -0.4397  -0.2975  -0.2366  -0.1562  -0.0376  -0.0303
     0.0554   0.0618   0.0936   0.1092   0.2305   0.2534   0.3057   0.3419
     0.3574

     occupation numbers 
     1.0000   1.0000   1.0000   1.0000   1.0000   1.0000   1.0000   1.0000
     1.0000   1.0000   1.0000   1.0000   1.0000   1.0000   1.0000   1.0000
     1.0000   1.0000   1.0000   1.0000   1.0000   1.0000   1.0000   1.0000
     1.0000   1.0000   1.0000   1.0000   1.0000   1.0000   1.0000   1.0000
     1.0000   1.0000   1.0000   1.0000   1.0000   1.0000   1.0000   1.0000
     1.0000   1.0000   1.0000   1.0000   1.0000   1.0000   1.0000   1.0000
     1.0000   1.0000   1.0000   1.0000   1.0000   1.0000   1.0000   1.0000
     1.0000   1.0000   1.0000   1.0000   1.0000   1.0000   1.0000   1.0000
     1.0000   1.0000   1.0000   1.0000   1.0000   1.0000   1.0000   1.0000
     1.0000   1.0000   1.0000   1.0000   1.0000   1.0000   1.0000   1.0000
     1.0000   1.0000   1.0000   1.0000   1.0000   1.0000   1.0000   1.0000
     1.0000   1.0000   1.0000   1.0000   1.0000   1.0000   1.0000   1.0017
     1.0018   1.0174   1.0828   0.5430   0.4617   0.1738   0.0824   0.0234
     0.0163   0.0008   0.0003   0.0000   0.0000   0.0000   0.0000   0.0000
     0.0000   0.0000   0.0000   0.0000   0.0000   0.0000   0.0000   0.0000
     0.0000   0.0000   0.0000   0.0000   0.0000   0.0000   0.0000   0.0000
     0.0000   0.0000   0.0000   0.0000   0.0000   0.0000   0.0000   0.0000
     0.0000   0.0000   0.0000   0.0000   0.0000   0.0000   0.0000   0.0000
     0.0000   0.0000   0.0000   0.0000   0.0000   0.0000   0.0000   0.0000
     0.0000

          k = 0.1429 0.4504 0.0000 (425406 PWs)   bands (ev):

   -50.7149 -50.7148 -50.7148 -50.7148 -50.4815 -50.4814 -50.4814 -50.4814
   -50.4325 -50.4324 -50.4324 -50.4323 -49.6247 -49.6247 -49.6246 -49.6246
   -49.5996 -49.5996 -49.5994 -49.5994 -49.5845 -49.5845 -49.5843 -49.5842
   -49.4424 -49.4407 -49.4375 -49.4366 -49.4309 -49.4307 -49.4304 -49.4302
   -49.4250 -49.4223 -49.4214 -49.4208 -49.4154 -49.4136 -49.4129 -49.4125
   -49.4105 -49.4104 -49.4101 -49.4098 -49.4071 -49.4066 -49.4065 -49.4061
   -49.4022 -49.4018 -49.4012 -49.3991 -49.3951 -49.3947 -49.3946 -49.3945
   -49.3921 -49.3921 -49.3914 -49.3912 -49.3577 -49.3576 -49.3571 -49.3571
   -49.3009 -49.3009 -49.3008 -49.3007  -6.1123  -6.0289  -5.7874  -5.7016
    -5.4532  -5.2158  -5.1301  -5.1295  -4.8122  -4.7383  -4.5781  -4.4764
    -4.4540  -4.4035  -4.3613  -4.2500  -3.9611  -3.9526  -3.9029  -3.8885
    -3.8541  -3.7431  -3.7251  -3.6696  -3.5927  -3.5535  -3.4913  -3.3974
    -3.3303  -3.1625  -3.1000  -3.0854  -3.0693  -2.9758  -2.9334  -2.8936
    -2.7351  -2.6978  -2.5588  -2.5513  -2.5381  -2.5044  -2.4564  -2.4165
    -2.3473  -2.3117  -2.2089  -2.1866  -2.0911  -2.0310  -1.9994  -1.6447
    -1.6309  -1.6178  -1.5181  -1.5087  -1.4284  -1.3908  -1.2550  -1.2243
    -1.2175  -1.0466  -1.0458  -0.9528  -0.8737  -0.8737  -0.8260  -0.6659
    -0.6262  -0.5327  -0.3777  -0.3647  -0.2845  -0.1714   0.0297   0.0606
     0.1270   0.1811   0.2346   0.2546   0.2616   0.3292   0.3458   0.3657
     0.3920

     occupation numbers 
     1.0000   1.0000   1.0000   1.0000   1.0000   1.0000   1.0000   1.0000
     1.0000   1.0000   1.0000   1.0000   1.0000   1.0000   1.0000   1.0000
     1.0000   1.0000   1.0000   1.0000   1.0000   1.0000   1.0000   1.0000
     1.0000   1.0000   1.0000   1.0000   1.0000   1.0000   1.0000   1.0000
     1.0000   1.0000   1.0000   1.0000   1.0000   1.0000   1.0000   1.0000
     1.0000   1.0000   1.0000   1.0000   1.0000   1.0000   1.0000   1.0000
     1.0000   1.0000   1.0000   1.0000   1.0000   1.0000   1.0000   1.0000
     1.0000   1.0000   1.0000   1.0000   1.0000   1.0000   1.0000   1.0000
     1.0000   1.0000   1.0000   1.0000   1.0000   1.0000   1.0000   1.0000
     1.0000   1.0000   1.0000   1.0000   1.0000   1.0000   1.0000   1.0000
     1.0000   1.0000   1.0000   1.0000   1.0000   1.0000   1.0000   1.0000
     1.0000   1.0000   1.0000   1.0000   1.0000   1.0000   1.0000   1.0001
     1.0008   1.0505   1.0832   1.0816   1.0718   0.7854   0.5562   0.3488
     0.0118   0.0037   0.0000   0.0000   0.0000   0.0000   0.0000   0.0000
     0.0000   0.0000   0.0000   0.0000   0.0000   0.0000   0.0000   0.0000
     0.0000   0.0000   0.0000   0.0000   0.0000   0.0000   0.0000   0.0000
     0.0000   0.0000   0.0000   0.0000   0.0000   0.0000   0.0000   0.0000
     0.0000   0.0000   0.0000   0.0000   0.0000   0.0000   0.0000   0.0000
     0.0000   0.0000   0.0000   0.0000   0.0000   0.0000   0.0000   0.0000
     0.0000

          k = 0.1429-0.3811 0.0000 (425398 PWs)   bands (ev):

   -50.7149 -50.7148 -50.7148 -50.7148 -50.4815 -50.4814 -50.4814 -50.4814
   -50.4325 -50.4324 -50.4324 -50.4323 -49.6247 -49.6247 -49.6246 -49.6246
   -49.5996 -49.5995 -49.5994 -49.5994 -49.5845 -49.5845 -49.5843 -49.5842
   -49.4424 -49.4407 -49.4375 -49.4366 -49.4309 -49.4307 -49.4304 -49.4302
   -49.4250 -49.4223 -49.4215 -49.4207 -49.4155 -49.4136 -49.4129 -49.4125
   -49.4106 -49.4103 -49.4101 -49.4097 -49.4071 -49.4065 -49.4065 -49.4062
   -49.4022 -49.4018 -49.4012 -49.3991 -49.3951 -49.3947 -49.3946 -49.3945
   -49.3921 -49.3920 -49.3914 -49.3912 -49.3577 -49.3576 -49.3571 -49.3571
   -49.3009 -49.3009 -49.3008 -49.3007  -6.1793  -5.9399  -5.8529  -5.6132
    -5.3613  -5.2824  -5.0500  -5.0406  -5.0259  -4.8098  -4.7134  -4.5207
    -4.5127  -4.4346  -4.2722  -4.1863  -4.1328  -4.0042  -3.9311  -3.8713
    -3.6853  -3.6663  -3.6646  -3.5105  -3.4791  -3.4170  -3.4091  -3.3454
    -3.3133  -3.1970  -3.1799  -3.1565  -3.0727  -3.0350  -2.8829  -2.7815
    -2.7364  -2.6833  -2.5999  -2.5930  -2.5710  -2.5656  -2.4894  -2.4432
    -2.4326  -2.3353  -2.2952  -2.2929  -1.9973  -1.9789  -1.8740  -1.7970
    -1.6879  -1.6827  -1.6268  -1.5893  -1.4442  -1.3553  -1.2788  -1.2377
    -1.1809  -1.0935  -1.0653  -0.9330  -0.8962  -0.7340  -0.6883  -0.6243
    -0.5934  -0.5118  -0.4735  -0.4707  -0.2789  -0.1352   0.0075   0.0080
     0.1297   0.1458   0.1702   0.1782   0.2347   0.2719   0.3769   0.4204
     0.4286

     occupation numbers 
     1.0000   1.0000   1.0000   1.0000   1.0000   1.0000   1.0000   1.0000
     1.0000   1.0000   1.0000   1.0000   1.0000   1.0000   1.0000   1.0000
     1.0000   1.0000   1.0000   1.0000   1.0000   1.0000   1.0000   1.0000
     1.0000   1.0000   1.0000   1.0000   1.0000   1.0000   1.0000   1.0000
     1.0000   1.0000   1.0000   1.0000   1.0000   1.0000   1.0000   1.0000
     1.0000   1.0000   1.0000   1.0000   1.0000   1.0000   1.0000   1.0000
     1.0000   1.0000   1.0000   1.0000   1.0000   1.0000   1.0000   1.0000
     1.0000   1.0000   1.0000   1.0000   1.0000   1.0000   1.0000   1.0000
     1.0000   1.0000   1.0000   1.0000   1.0000   1.0000   1.0000   1.0000
     1.0000   1.0000   1.0000   1.0000   1.0000   1.0000   1.0000   1.0000
     1.0000   1.0000   1.0000   1.0000   1.0000   1.0000   1.0000   1.0000
     1.0000   1.0000   1.0000   1.0000   1.0000   1.0000   1.0000   1.0005
     1.0014   1.0290   1.0389   1.0546   1.0746   1.0145   0.3003   0.0414
     0.0123   0.0022   0.0001   0.0001   0.0000   0.0000   0.0000   0.0000
     0.0000   0.0000   0.0000   0.0000   0.0000   0.0000   0.0000   0.0000
     0.0000   0.0000   0.0000   0.0000   0.0000   0.0000   0.0000   0.0000
[...]
     atom   64 type  1   force =     0.00000000    0.00000000    0.00000000
     atom   65 type  1   force =     0.00000000    0.00000000    0.00000000
     atom   66 type  1   force =     0.00000000    0.00000000    0.00000000
     atom   67 type  1   force =     0.00000000    0.00000000    0.00000000
     atom   68 type  1   force =     0.00000000    0.00000000    0.00000000
     The Hubbard contrib.    to forces
     atom    1 type  1   force =     0.00000000    0.00000000    0.00000000
     atom    2 type  1   force =     0.00000000    0.00000000    0.00000000
     atom    3 type  1   force =     0.00000000    0.00000000    0.00000000
     atom    4 type  1   force =     0.00000000    0.00000000    0.00000000
     atom    5 type  1   force =     0.00000000    0.00000000    0.00000000
     atom    6 type  1   force =     0.00000000    0.00000000    0.00000000
     atom    7 type  1   force =     0.00000000    0.00000000    0.00000000
     atom    8 type  1   force =     0.00000000    0.00000000    0.00000000
     atom    9 type  1   force =     0.00000000    0.00000000    0.00000000
     atom   10 type  1   force =     0.00000000    0.00000000    0.00000000
     atom   11 type  1   force =     0.00000000    0.00000000    0.00000000
     atom   12 type  1   force =     0.00000000    0.00000000    0.00000000
     atom   13 type  1   force =     0.00000000    0.00000000    0.00000000
     atom   14 type  1   force =     0.00000000    0.00000000    0.00000000
     atom   15 type  1   force =     0.00000000    0.00000000    0.00000000
     atom   16 type  1   force =     0.00000000    0.00000000    0.00000000
     atom   17 type  1   force =     0.00000000    0.00000000    0.00000000
     atom   18 type  1   force =     0.00000000    0.00000000    0.00000000
     atom   19 type  1   force =     0.00000000    0.00000000    0.00000000
     atom   20 type  1   force =     0.00000000    0.00000000    0.00000000
     atom   21 type  1   force =     0.00000000    0.00000000    0.00000000
     atom   22 type  1   force =     0.00000000    0.00000000    0.00000000
     atom   23 type  1   force =     0.00000000    0.00000000    0.00000000
     atom   24 type  1   force =     0.00000000    0.00000000    0.00000000
     atom   25 type  1   force =     0.00000000    0.00000000    0.00000000
     atom   26 type  1   force =     0.00000000    0.00000000    0.00000000
     atom   27 type  1   force =     0.00000000    0.00000000    0.00000000
     atom   28 type  1   force =     0.00000000    0.00000000    0.00000000
     atom   29 type  1   force =     0.00000000    0.00000000    0.00000000
     atom   30 type  1   force =     0.00000000    0.00000000    0.00000000
     atom   31 type  1   force =     0.00000000    0.00000000    0.00000000
     atom   32 type  1   force =     0.00000000    0.00000000    0.00000000
     atom   33 type  1   force =     0.00000000    0.00000000    0.00000000
     atom   34 type  1   force =     0.00000000    0.00000000    0.00000000
     atom   35 type  1   force =     0.00000000    0.00000000    0.00000000
     atom   36 type  1   force =     0.00000000    0.00000000    0.00000000
     atom   37 type  1   force =     0.00000000    0.00000000    0.00000000
     atom   38 type  1   force =     0.00000000    0.00000000    0.00000000
     atom   39 type  1   force =     0.00000000    0.00000000    0.00000000
     atom   40 type  1   force =     0.00000000    0.00000000    0.00000000
     atom   41 type  1   force =     0.00000000    0.00000000    0.00000000
     atom   42 type  1   force =     0.00000000    0.00000000    0.00000000
     atom   43 type  1   force =     0.00000000    0.00000000    0.00000000
     atom   44 type  1   force =     0.00000000    0.00000000    0.00000000
     atom   45 type  1   force =     0.00000000    0.00000000    0.00000000
     atom   46 type  1   force =     0.00000000    0.00000000    0.00000000
     atom   47 type  1   force =     0.00000000    0.00000000    0.00000000
     atom   48 type  1   force =     0.00000000    0.00000000    0.00000000
     atom   49 type  1   force =     0.00000000    0.00000000    0.00000000
     atom   50 type  1   force =     0.00000000    0.00000000    0.00000000
     atom   51 type  1   force =     0.00000000    0.00000000    0.00000000
     atom   52 type  1   force =     0.00000000    0.00000000    0.00000000
     atom   53 type  1   force =     0.00000000    0.00000000    0.00000000
     atom   54 type  1   force =     0.00000000    0.00000000    0.00000000
     atom   55 type  1   force =     0.00000000    0.00000000    0.00000000
     atom   56 type  1   force =     0.00000000    0.00000000    0.00000000
     atom   57 type  1   force =     0.00000000    0.00000000    0.00000000
     atom   58 type  1   force =     0.00000000    0.00000000    0.00000000
     atom   59 type  1   force =     0.00000000    0.00000000    0.00000000
     atom   60 type  1   force =     0.00000000    0.00000000    0.00000000
     atom   61 type  1   force =     0.00000000    0.00000000    0.00000000
     atom   62 type  1   force =     0.00000000    0.00000000    0.00000000
     atom   63 type  1   force =     0.00000000    0.00000000    0.00000000
     atom   64 type  1   force =     0.00000000    0.00000000    0.00000000
     atom   65 type  1   force =     0.00000000    0.00000000    0.00000000
     atom   66 type  1   force =     0.00000000    0.00000000    0.00000000
     atom   67 type  1   force =     0.00000000    0.00000000    0.00000000
     atom   68 type  1   force =     0.00000000    0.00000000    0.00000000
     The SCF correction term to forces
     atom    1 type  1   force =    -0.00000004   -0.00000179    0.00000011
     atom    2 type  1   force =    -0.00000005    0.00000012    0.00000027
     atom    3 type  1   force =    -0.00000002   -0.00000006    0.00000274
     atom    4 type  1   force =    -0.00000000   -0.00000012    0.00000141
     atom    5 type  1   force =     0.00000001    0.00000002    0.00000081
     atom    6 type  1   force =    -0.00000000    0.00000008    0.00000113
     atom    7 type  1   force =    -0.00000000   -0.00000011   -0.00000021
     atom    8 type  1   force =    -0.00000001   -0.00000003    0.00000117
     atom    9 type  1   force =    -0.00000001   -0.00000005    0.00000086
     atom   10 type  1   force =    -0.00000001    0.00000010    0.00000013
     atom   11 type  1   force =    -0.00000001    0.00000006   -0.00000052
     atom   12 type  1   force =    -0.00000001    0.00000006   -0.00000109
     atom   13 type  1   force =    -0.00000000   -0.00000002    0.00000062
     atom   14 type  1   force =    -0.00000001    0.00000004   -0.00000095
     atom   15 type  1   force =    -0.00000002    0.00000003    0.00000021
     atom   16 type  1   force =    -0.00000002    0.00000085   -0.00000050
     atom   17 type  1   force =     0.00000000   -0.00000019    0.00000001
     atom   18 type  1   force =     0.00000001   -0.00000001   -0.00000007
     atom   19 type  1   force =    -0.00000000   -0.00000011    0.00000132
     atom   20 type  1   force =    -0.00000001   -0.00000009    0.00000100
     atom   21 type  1   force =    -0.00000001   -0.00000001    0.00000133
     atom   22 type  1   force =    -0.00000000    0.00000010    0.00000075
     atom   23 type  1   force =     0.00000000    0.00000000   -0.00000007
     atom   24 type  1   force =    -0.00000001    0.00000001   -0.00000067
     atom   25 type  1   force =    -0.00000000   -0.00000010    0.00000039
     atom   26 type  1   force =     0.00000000    0.00000006   -0.00000040
     atom   27 type  1   force =    -0.00000001    0.00000000   -0.00000088
     atom   28 type  1   force =     0.00000001    0.00000001   -0.00000268
     atom   29 type  1   force =    -0.00000009   -0.00000008   -0.00000038
     atom   30 type  1   force =    -0.00000002   -0.00000009   -0.00000071
     atom   31 type  1   force =    -0.00000001    0.00000007   -0.00000145
     atom   32 type  1   force =    -0.00000008    0.00000172   -0.00000014
     atom   33 type  1   force =     0.00000000    0.00000022   -0.00000003
     atom   34 type  1   force =    -0.00000000   -0.00000091    0.00000045
     atom   35 type  1   force =     0.00000004   -0.00000172    0.00000001
     atom   36 type  1   force =    -0.00000004    0.00000014    0.00000035
     atom   37 type  1   force =     0.00000000   -0.00000004    0.00000277
     atom   38 type  1   force =    -0.00000001   -0.00000010    0.00000146
     atom   39 type  1   force =     0.00000001    0.00000003    0.00000082
     atom   40 type  1   force =     0.00000002    0.00000009    0.00000113
     atom   41 type  1   force =     0.00000001   -0.00000010   -0.00000020
     atom   42 type  1   force =     0.00000001   -0.00000003    0.00000116
     atom   43 type  1   force =    -0.00000003   -0.00000005    0.00000087
     atom   44 type  1   force =     0.00000002    0.00000010    0.00000013
     atom   45 type  1   force =     0.00000000    0.00000006   -0.00000053
     atom   46 type  1   force =     0.00000001    0.00000007   -0.00000108
     atom   47 type  1   force =    -0.00000001   -0.00000002    0.00000061
     atom   48 type  1   force =    -0.00000000    0.00000004   -0.00000094
     atom   49 type  1   force =    -0.00000001    0.00000004    0.00000016
     atom   50 type  1   force =     0.00000002    0.00000088   -0.00000056
     atom   51 type  1   force =     0.00000001   -0.00000018   -0.00000013
     atom   52 type  1   force =     0.00000001   -0.00000003   -0.00000003
     atom   53 type  1   force =    -0.00000000   -0.00000009    0.00000132
     atom   54 type  1   force =     0.00000001   -0.00000008    0.00000098
     atom   55 type  1   force =     0.00000001   -0.00000001    0.00000134
     atom   56 type  1   force =    -0.00000001    0.00000010    0.00000073
     atom   57 type  1   force =     0.00000002    0.00000001   -0.00000006
     atom   58 type  1   force =     0.00000000    0.00000001   -0.00000065
     atom   59 type  1   force =     0.00000001   -0.00000010    0.00000042
     atom   60 type  1   force =     0.00000000    0.00000005   -0.00000040
     atom   61 type  1   force =     0.00000002   -0.00000000   -0.00000090
     atom   62 type  1   force =     0.00000001   -0.00000000   -0.00000268
     atom   63 type  1   force =    -0.00000011   -0.00000005   -0.00000037
     atom   64 type  1   force =    -0.00000001   -0.00000009   -0.00000070
     atom   65 type  1   force =    -0.00000004    0.00000011   -0.00000150
     atom   66 type  1   force =    -0.00000007    0.00000163   -0.00000020
     atom   67 type  1   force =     0.00000002    0.00000022   -0.00000003
     atom   68 type  1   force =     0.00000001   -0.00000094    0.00000041

     Total force =     0.002143     Total SCF correction =     0.000009
     Energy error            =      9.0E-06 Ry
     Gradient error          =      3.9E-04 Ry/Bohr

     bfgs converged in  23 scf cycles and  22 bfgs steps
     (criteria: energy <  1.0E-05 Ry, force <  3.9E-04 Ry/Bohr)

     End of BFGS Geometry Optimization

     Final energy             =   -1022.5410213755 Ry

     File ./Li/Lithium.bfgs deleted, as requested
Begin final coordinates

ATOMIC_POSITIONS (angstrom)
Li              -0.0037395662        0.3938973377       19.9722568061
Li               0.0024213766        5.8577191577       33.3042522218
Li               2.4311526866        7.6715226571       31.6625458514
Li               2.4325537655        1.8741476426       32.0032738169
Li               0.0026208767        3.5328893832       30.8243617363
Li               2.4302371536        5.3645945283       29.0814766882
Li               2.4283971801        8.8353629648       25.7347797736
Li               0.0023446541        9.4020376279       30.0678293081
Li               0.0014520967        1.1822730686       28.2665569800
Li               2.4283005834        2.9852395326       26.4618629318
Li              -0.0017217995        4.6849603738       24.9369600282
Li               2.4273507133        6.4614786823       23.1541108015
Li               0.0004695462        7.0422491584       27.5026042460
Li               2.4273207401        0.5228835372       24.3278456590
Li              -0.0032878558        2.3709406563       22.4586127845
Li               2.4271224964        3.8413238752       20.6002618295
Li              -0.0024010295        8.2559852609       21.6835715088
Li               0.0032256664        0.5747261073       31.1642668054
Li               0.0016717266        6.4992107926       30.4688204367
Li               2.4307425838        8.2757814213       28.6857883053
Li               2.4307231774        2.4226874408       29.2950954225
Li               0.0006075772        4.1253515554       27.8878953488
Li               2.4285479265        5.9184820297       26.1200741043
Li               2.4263921599        9.4277991606       22.7985775975
Li               0.0007124111        9.9754753667       27.1608420201
Li              -0.0014712320        1.7633276394       25.3561419475
Li               2.4266802760        3.5587328504       23.5550524969
Li              -0.0021181372        5.2892468595       21.9603795999
Li               2.4266088501        7.1029997664       20.3187709190
Li              -0.0012162224        7.5961398440       24.5413161724
Li               2.4254943588        1.0714894174       21.6197464118
Li               0.0041436190        2.5517504324       33.6508217942
Li               2.4314363003        4.7048228959       31.9393576607
Li               0.0018798720        9.1194051672       33.0227591359
Li               4.8537559713        0.3938216892       19.9722738027
Li               4.8605199680        5.8576747135       33.3042969438
Li               7.2892649281        7.6715261374       31.6625431360
Li               7.2906015567        1.8741845036       32.0034672088
Li               4.8606534804        3.5328925056       30.8243566555
Li               7.2882469772        5.3645945002       29.0814270801
Li               7.2864812843        8.8353723678       25.7347939660
Li               4.8603877704        9.4020626944       30.0677435580
Li               4.8595209182        1.1822724936       28.2665822024
Li               7.2863721485        2.9852571384       26.4619179349
Li               4.8563110782        4.6849621797       24.9369400288
Li               7.2853680474        6.4614367452       23.1540443436
Li               4.8585318899        7.0422560586       27.5026662220
Li               7.2853481062        0.5229263975       24.3275975133
Li               4.8548458033        2.3709129359       22.4586174246
Li               7.2852134316        3.8415377354       20.6003523091
Li               4.8556262261        8.2559289551       21.6836715738
Li               4.8613172654        0.5747208472       31.1642732622
Li               4.8597361028        6.4992555989       30.4688892645
Li               7.2888016777        8.2757836432       28.6857858167
Li               7.2887800475        2.4226901212       29.2951948682
Li               4.8586405805        4.1253507293       27.8878847371
Li               7.2865862393        5.9184821099       26.1200354155
Li               7.2844658745        9.4277989846       22.7985761709
Li               4.8587438861        9.9754847135       27.1607275911
Li               4.8565818327        1.7633263461       25.3561528951
Li               7.2847256020        3.5587291684       23.5550833109
Li               4.8558327435        5.2892145589       21.9603666184
Li               7.2845863662        7.1031045875       20.3187284270
Li               4.8568607024        7.5961495663       24.5413796091
Li               7.2835320495        1.0714231142       21.6193131547
Li               4.8619365373        2.5517127084       33.6508091666
Li               7.2894683208        4.7048429544       31.9392896116
Li               4.8599087246        9.1192843445       33.0226574407
End final coordinates



     Writing all to output data dir ./Li/Lithium.save/ :
     XML data file
     init_run     :     36.47s CPU     48.26s WALL (       1 calls)
     electrons    :  38130.28s CPU  49132.03s WALL (      23 calls)
     update_pot   :      4.36s CPU      5.05s WALL (      22 calls)
     forces       :   2527.13s CPU   2646.68s WALL (      23 calls)

     Called by init_run:
     wfcinit      :      7.68s CPU     10.83s WALL (       1 calls)
     wfcinit:wfcr :      7.07s CPU     10.20s WALL (      13 calls)
     potinit      :      1.21s CPU      1.30s WALL (       1 calls)
     hinit0       :     12.26s CPU     20.43s WALL (       1 calls)

     Called by electrons:
     c_bands      :  31847.24s CPU  41358.43s WALL (     470 calls)
     sum_band     :   1685.28s CPU   2378.91s WALL (     470 calls)
     v_of_rho     :     65.60s CPU     75.78s WALL (     471 calls)
     v_h          :      5.38s CPU      6.38s WALL (     471 calls)
     v_xc         :     60.18s CPU     69.35s WALL (     471 calls)
     newd         :     54.51s CPU     90.86s WALL (     471 calls)
     PAW_pot      :      5.28s CPU      7.11s WALL (     493 calls)
     mix_rho      :    188.45s CPU    222.57s WALL (     470 calls)

     Called by c_bands:
     init_us_2    :    322.09s CPU    323.75s WALL (   12818 calls)
     cegterg      :  30589.24s CPU  38450.07s WALL (    9033 calls)

     Called by sum_band:
     sum_band:wei :      1.11s CPU      1.26s WALL (     470 calls)
     sum_band:loo :   1633.65s CPU   2322.91s WALL (     470 calls)
     sum_band:buf :     34.82s CPU     35.69s WALL (    6110 calls)
     sum_band:ini :    155.88s CPU    156.12s WALL (    6110 calls)
     sum_band:cal :    326.40s CPU    350.13s WALL (    6396 calls)
     sum_band:bec :      2.56s CPU      3.03s WALL (    6396 calls)
     addusdens    :     40.55s CPU     40.89s WALL (     470 calls)
                                        0.00s GPU  (     470 calls)
     addusd:skk   :     11.42s CPU     11.45s WALL (     470 calls)
                                        0.00s GPU  (     470 calls)

     Called by *egterg:
     cdiaghg      :   8948.73s CPU  10223.77s WALL (  132391 calls)
     cegterg:over :   2357.50s CPU   2533.86s WALL (  124297 calls)
     cegterg:upda :   2061.34s CPU   2131.78s WALL (  124297 calls)
     cegterg:last :    581.13s CPU    623.08s WALL (   10042 calls)
     cdiaghg:chol :    447.72s CPU    844.20s WALL (  132391 calls)
     cdiaghg:inve :    191.14s CPU    213.50s WALL (  132391 calls)
     cdiaghg:para :   2498.61s CPU   2930.54s WALL (  264782 calls)
     h_psi        :  14306.19s CPU  20555.85s WALL (  133343 calls)
     s_psi        :   1874.25s CPU   1881.86s WALL (  133343 calls)
     g_psi        :     30.25s CPU     32.40s WALL (  124297 calls)

     Called by h_psi:
     h_psi:calbec :   2164.37s CPU   2356.52s WALL (  133343 calls)
     vloc_psi     :  10056.60s CPU  16097.49s WALL (  133343 calls)
                                        0.00s GPU  (  133343 calls)
     add_vuspsi   :   1972.53s CPU   1984.95s WALL (  133343 calls)

     General routines
     calbec       :   2545.16s CPU   2764.42s WALL (  140935 calls)
     fft          :     47.98s CPU     70.09s WALL (    6167 calls)
     ffts         :     90.60s CPU    111.89s WALL (   53216 calls)
     fftw         :  10766.50s CPU  17258.94s WALL ( 9465470 calls)
     interpolate  :      5.58s CPU      6.73s WALL (     471 calls)

     Parallel routines

     PAW routines
     PAW_pot      :      5.28s CPU      7.11s WALL (     493 calls)

     Environ routines

     PWSCF        :     11h25m CPU     14h33m WALL


   This run was terminated on:   1:25: 5   3Jan2025            

=------------------------------------------------------------------------------=
   JOB DONE.
=------------------------------------------------------------------------------=
