
     Program PWSCF v.7.4 starts on 23Jan2025 at  0:35:55 

     This program is part of the open-source Quantum ESPRESSO suite
     for quantum simulation of materials; please cite
         "P. Giannozzi et al., J. Phys.:Condens. Matter 21 395502 (2009);
         "P. Giannozzi et al., J. Phys.:Condens. Matter 29 465901 (2017);
         "P. Giannozzi et al., J. Chem. Phys. 152 154105 (2020);
          URL http://www.quantum-espresso.org", 
     in publications or presentations arising from this work. More details at
     http://www.quantum-espresso.org/quote

     Parallel version (MPI & OpenMP), running on     384 processor cores
     Number of MPI processes:               384
     Threads/MPI process:                     1

     MPI processes distributed on     2 nodes
     669095 MiB available memory on the printing compute node when the environment starts
 
     Reading input from espresso.pwi
Warning: card &CELL ignored
Warning: card    PRESS_CONV_THR   = 0.1 ignored
Warning: card    CELL_DOFREE      = 'ALL' ignored
Warning: card / ignored
Warning: card &FCP ignored
Warning: card / ignored
Warning: card &RISM ignored
Warning: card / ignored

     Current dimensions of program PWSCF are:
     Max number of different atomic species (ntypx) = 10
     Max number of k-points (npk) =  40000
     Max angular momentum in pseudopotentials (lmaxx) =  4

     IMPORTANT: XC functional enforced from input :
     Exchange-correlation= PBE
                           (   1   4   3   4   0   0   0)
     Any further DFT definition will be discarded
     Please, verify this is what you really want

     Message from routine setup:
     using ibrav=0 with symmetry is DISCOURAGED, use correct ibrav instead
 
     K-points division:     npool     =       3
     R & G space division:  proc/nbgrp/npool/nimage =     128
     Subspace diagonalization in iterative solution of the eigenvalue problem:
     a serial algorithm will be used

 
     Parallelization info
     --------------------
     sticks:   dense  smooth     PW     G-vecs:    dense   smooth      PW
     Min          93      37     10                32643     8255    1128
     Max          94      38     11                32690     8280    1156
     Sum       11999    4803   1285              4181221  1057965  146427
 
     Using Slab Decomposition
 


     bravais-lattice index     =            0
     lattice parameter (alat)  =      12.9830  a.u.
     unit-cell volume          =   10941.9842 (a.u.)^3
     number of atoms/cell      =           20
     number of atomic types    =            1
     number of electrons       =        60.00
     number of Kohn-Sham states=           45
     kinetic-energy cutoff     =      80.0000  Ry
     charge density cutoff     =     800.0000  Ry
     scf convergence threshold =      1.0E-06
     mixing beta               =       0.2000
     number of iterations used =            8  local-TF  mixing
     energy convergence thresh.=      1.0E-05
     force convergence thresh. =      3.9E-04
     Exchange-correlation= PBE
                           (   1   4   3   4   0   0   0)
     nstep                     =           50


     celldm(1)=  12.983009  celldm(2)=   0.000000  celldm(3)=   0.000000
     celldm(4)=   0.000000  celldm(5)=   0.000000  celldm(6)=   0.000000

     crystal axes: (cart. coord. in units of alat)
               a(1) = (   1.000000   0.000000   0.000000 )  
               a(2) = (   0.000000   1.118034   0.000000 )  
               a(3) = (   0.000000   0.000000   4.472136 )  

     reciprocal axes: (cart. coord. in units 2 pi/alat)
               b(1) = (  1.000000  0.000000  0.000000 )  
               b(2) = (  0.000000  0.894427  0.000000 )  
               b(3) = (  0.000000  0.000000  0.223607 )  


     PseudoPot. # 1 for Li read from file:
     /iridisfs/home/ba3g18/Repos/Pseudopotentials/pslibrary.1.0.0/pbe/PSEUDOPOTENTIALS/Li.pbe-sl-kjpaw_psl.1.0.0.UPF
     MD5 check sum: 3f4d2cafebb47c6c3aa8ed472e6f074d
     Pseudo is Projector augmented-wave, Zval =  3.0
     Generated using 'atomic' code by A. Dal Corso  v.7.4
     Shape of augmentation charge: PSQ
     Using radial grid of 1017 points,  4 beta functions with: 
                l(1) =   0
                l(2) =   0
                l(3) =   1
                l(4) =   1
     Q(r) pseudized with 0 coefficients 


     atomic species   valence    mass     pseudopotential
     Li                3.00     6.94000     Li( 1.00)

      2 Sym. Ops. (no inversion) found



   Cartesian axes

     site n.     atom                  positions (alat units)
         1        Li     tau(   1) = (  -0.0000000   0.4606569   2.5126330  )
         2        Li     tau(   2) = (  -0.0000000   0.8915059   2.2952865  )
         3        Li     tau(   3) = (  -0.0000000   0.2236044   2.0729036  )
         4        Li     tau(   4) = (  -0.0000000   0.6310947   1.8385020  )
         5        Li     tau(   5) = (  -0.0000000   0.0757061   2.7408355  )
         6        Li     tau(   6) = (   0.2500124   0.5619261   2.1768595  )
         7        Li     tau(   7) = (   0.2499845   0.9927905   1.9595021  )
         8        Li     tau(   8) = (   0.2499974   0.2597001   1.7312919  )
         9        Li     tau(   9) = (   0.2500100   0.8223390   2.6336492  )
        10        Li     tau(  10) = (   0.2500033   0.1118106   2.3992374  )
        11        Li     tau(  11) = (   0.5000000   0.4606522   2.5126373  )
        12        Li     tau(  12) = (   0.5000000   0.8915216   2.2952668  )
        13        Li     tau(  13) = (   0.5000000   0.2235931   2.0728885  )
        14        Li     tau(  14) = (   0.5000000   0.6311193   1.8384752  )
        15        Li     tau(  15) = (   0.5000000   0.0757188   2.7408496  )
        16        Li     tau(  16) = (   0.7499876   0.5619261   2.1768595  )
        17        Li     tau(  17) = (   0.7500155   0.9927905   1.9595021  )
        18        Li     tau(  18) = (   0.7500025   0.2597001   1.7312919  )
        19        Li     tau(  19) = (   0.7499900   0.8223390   2.6336492  )
        20        Li     tau(  20) = (   0.7499967   0.1118106   2.3992374  )

     number of k points=    30  Marzari-Vanderbilt smearing, width (Ry)=  0.0100
                       cart. coord. in units 2pi/alat
        k(    1) = (   0.0000000   0.0000000   0.0000000), wk =   0.0222222
        k(    2) = (   0.0000000   0.0993808   0.0000000), wk =   0.0444444
        k(    3) = (   0.0000000   0.1987616   0.0000000), wk =   0.0444444
        k(    4) = (   0.0000000   0.2981424   0.0000000), wk =   0.0444444
        k(    5) = (   0.0000000   0.3975232   0.0000000), wk =   0.0444444
        k(    6) = (   0.1000000   0.0000000   0.0000000), wk =   0.0444444
        k(    7) = (   0.1000000   0.0993808   0.0000000), wk =   0.0888889
        k(    8) = (   0.1000000   0.1987616   0.0000000), wk =   0.0888889
        k(    9) = (   0.1000000   0.2981424   0.0000000), wk =   0.0888889
        k(   10) = (   0.1000000   0.3975232   0.0000000), wk =   0.0888889
        k(   11) = (   0.2000000   0.0000000   0.0000000), wk =   0.0444444
        k(   12) = (   0.2000000   0.0993808   0.0000000), wk =   0.0888889
        k(   13) = (   0.2000000   0.1987616   0.0000000), wk =   0.0888889
        k(   14) = (   0.2000000   0.2981424   0.0000000), wk =   0.0888889
        k(   15) = (   0.2000000   0.3975232   0.0000000), wk =   0.0888889
        k(   16) = (   0.3000000   0.0000000   0.0000000), wk =   0.0444444
        k(   17) = (   0.3000000   0.0993808   0.0000000), wk =   0.0888889
        k(   18) = (   0.3000000   0.1987616   0.0000000), wk =   0.0888889
        k(   19) = (   0.3000000   0.2981424   0.0000000), wk =   0.0888889
        k(   20) = (   0.3000000   0.3975232   0.0000000), wk =   0.0888889
        k(   21) = (   0.4000000   0.0000000   0.0000000), wk =   0.0444444
        k(   22) = (   0.4000000   0.0993808   0.0000000), wk =   0.0888889
        k(   23) = (   0.4000000   0.1987616   0.0000000), wk =   0.0888889
        k(   24) = (   0.4000000   0.2981424   0.0000000), wk =   0.0888889
        k(   25) = (   0.4000000   0.3975232   0.0000000), wk =   0.0888889
        k(   26) = (  -0.5000000   0.0000000   0.0000000), wk =   0.0222222
        k(   27) = (  -0.5000000   0.0993808   0.0000000), wk =   0.0444444
        k(   28) = (  -0.5000000   0.1987616   0.0000000), wk =   0.0444444
        k(   29) = (  -0.5000000   0.2981424   0.0000000), wk =   0.0444444
        k(   30) = (  -0.5000000   0.3975232   0.0000000), wk =   0.0444444

     Dense  grid:  4181221 G-vectors     FFT dimensions: ( 120, 135, 540)

     Smooth grid:  1057965 G-vectors     FFT dimensions: (  75,  90, 360)

     Estimated max dynamical RAM per process >      63.80 MB

     Estimated total dynamical RAM >      15.61 GB

     Initial potential from superposition of free atoms

     starting charge      59.9078, renormalised to      60.0000

     negative rho (up, down):  1.854E-03 0.000E+00
     Starting wfcs are  100 randomized atomic wfcs
     Checking if some PAW data can be deallocated... 

     total cpu time spent up to now is        5.8 secs

     Self-consistent Calculation

     iteration #  1     ecut=    80.00 Ry     beta= 0.20
     Davidson diagonalization with overlap
     ethr =  1.00E-02,  avg # of iterations =  3.3

     negative rho (up, down):  1.132E-04 0.000E+00

     total cpu time spent up to now is        9.5 secs

     total energy              =    -300.82087634 Ry
     estimated scf accuracy    <       2.07900275 Ry

     iteration #  2     ecut=    80.00 Ry     beta= 0.20
     Davidson diagonalization with overlap
     ethr =  3.47E-03,  avg # of iterations =  1.3

     total cpu time spent up to now is       12.3 secs

     total energy              =    -300.40538048 Ry
     estimated scf accuracy    <       1.59199210 Ry

     iteration #  3     ecut=    80.00 Ry     beta= 0.20
     Davidson diagonalization with overlap
     ethr =  2.65E-03,  avg # of iterations =  1.9

     total cpu time spent up to now is       14.7 secs

     total energy              =    -300.60557131 Ry
     estimated scf accuracy    <       0.21738628 Ry

     iteration #  4     ecut=    80.00 Ry     beta= 0.20
     Davidson diagonalization with overlap
     ethr =  3.62E-04,  avg # of iterations =  4.0

     total cpu time spent up to now is       17.2 secs

     total energy              =    -300.66797496 Ry
     estimated scf accuracy    <       0.37768718 Ry

     iteration #  5     ecut=    80.00 Ry     beta= 0.20
     Davidson diagonalization with overlap
     ethr =  3.62E-04,  avg # of iterations =  1.0

     total cpu time spent up to now is       19.1 secs

     total energy              =    -300.63361302 Ry
     estimated scf accuracy    <       0.26134996 Ry

     iteration #  6     ecut=    80.00 Ry     beta= 0.20
     Davidson diagonalization with overlap
     ethr =  3.62E-04,  avg # of iterations =  1.1

     total cpu time spent up to now is       21.2 secs

     total energy              =    -300.65721308 Ry
     estimated scf accuracy    <       0.04322618 Ry

     iteration #  7     ecut=    80.00 Ry     beta= 0.20
     Davidson diagonalization with overlap
     ethr =  7.20E-05,  avg # of iterations =  2.8

     negative rho (up, down):  2.585E-03 0.000E+00

     total cpu time spent up to now is       23.6 secs

     total energy              =    -300.65134019 Ry
     estimated scf accuracy    <       0.17015122 Ry

     iteration #  8     ecut=    80.00 Ry     beta= 0.20
     Davidson diagonalization with overlap
     ethr =  7.20E-05,  avg # of iterations =  1.2

     negative rho (up, down):  5.066E-04 0.000E+00

     total cpu time spent up to now is       25.6 secs

     total energy              =    -300.65165266 Ry
     estimated scf accuracy    <       0.09229150 Ry

     iteration #  9     ecut=    80.00 Ry     beta= 0.20
     Davidson diagonalization with overlap
     ethr =  7.20E-05,  avg # of iterations =  1.0

     negative rho (up, down):  5.977E-02 0.000E+00

     total cpu time spent up to now is       27.5 secs

     total energy              =    -300.63362752 Ry
     estimated scf accuracy    <       0.09104134 Ry

     iteration # 10     ecut=    80.00 Ry     beta= 0.20
     Davidson diagonalization with overlap
     ethr =  7.20E-05,  avg # of iterations =  7.0

     negative rho (up, down):  1.558E-02 0.000E+00

     total cpu time spent up to now is       30.1 secs

     total energy              =    -300.64325114 Ry
     estimated scf accuracy    <       0.00708117 Ry

     iteration # 11     ecut=    80.00 Ry     beta= 0.20
     Davidson diagonalization with overlap
     ethr =  1.18E-05,  avg # of iterations =  8.2

     negative rho (up, down):  6.858E-02 0.000E+00

     total cpu time spent up to now is       33.0 secs

     total energy              =    -300.63727113 Ry
     estimated scf accuracy    <       0.02635420 Ry

     iteration # 12     ecut=    80.00 Ry     beta= 0.20
     Davidson diagonalization with overlap
     c_bands:  1 eigenvalues not converged
     c_bands:  1 eigenvalues not converged
     ethr =  1.18E-05,  avg # of iterations = 10.6

     negative rho (up, down):  5.318E-02 0.000E+00

     total cpu time spent up to now is       36.2 secs

     total energy              =    -300.63990762 Ry
     estimated scf accuracy    <       0.00217090 Ry

     iteration # 13     ecut=    80.00 Ry     beta= 0.20
     Davidson diagonalization with overlap
     ethr =  3.62E-06,  avg # of iterations =  8.6

     negative rho (up, down):  2.781E-02 0.000E+00

     total cpu time spent up to now is       38.8 secs

     total energy              =    -300.63871216 Ry
     estimated scf accuracy    <       0.00434404 Ry

     iteration # 14     ecut=    80.00 Ry     beta= 0.20
     Davidson diagonalization with overlap
     ethr =  3.62E-06,  avg # of iterations =  8.1

     negative rho (up, down):  2.412E-02 0.000E+00

     total cpu time spent up to now is       41.5 secs

     total energy              =    -300.63882482 Ry
     estimated scf accuracy    <       0.00170874 Ry

     iteration # 15     ecut=    80.00 Ry     beta= 0.20
     Davidson diagonalization with overlap
     ethr =  2.85E-06,  avg # of iterations =  3.6

     negative rho (up, down):  3.519E-03 0.000E+00

     total cpu time spent up to now is       43.5 secs

     total energy              =    -300.63929042 Ry
     estimated scf accuracy    <       0.00028908 Ry

     iteration # 16     ecut=    80.00 Ry     beta= 0.20
     Davidson diagonalization with overlap
     c_bands:  1 eigenvalues not converged
     ethr =  4.82E-07,  avg # of iterations =  8.6

     negative rho (up, down):  2.676E-03 0.000E+00

     total cpu time spent up to now is       46.4 secs

     total energy              =    -300.63939250 Ry
     estimated scf accuracy    <       0.00002077 Ry

     iteration # 17     ecut=    80.00 Ry     beta= 0.20
     Davidson diagonalization with overlap
     ethr =  3.46E-08,  avg # of iterations =  4.9

     negative rho (up, down):  4.121E-04 0.000E+00

     total cpu time spent up to now is       48.9 secs

     total energy              =    -300.63944372 Ry
     estimated scf accuracy    <       0.00000571 Ry

     iteration # 18     ecut=    80.00 Ry     beta= 0.20
     Davidson diagonalization with overlap
     c_bands:  1 eigenvalues not converged
     ethr =  9.51E-09,  avg # of iterations =  8.0

     negative rho (up, down):  2.647E-04 0.000E+00

     total cpu time spent up to now is       51.8 secs

     total energy              =    -300.63944627 Ry
     estimated scf accuracy    <       0.00000203 Ry

     iteration # 19     ecut=    80.00 Ry     beta= 0.20
     Davidson diagonalization with overlap
     ethr =  3.39E-09,  avg # of iterations =  3.7

     negative rho (up, down):  1.742E-04 0.000E+00

     total cpu time spent up to now is       53.9 secs

     End of self-consistent calculation

          k = 0.0000 0.0000 0.0000 (132445 PWs)   bands (ev):

   -49.3071 -49.3070 -49.3057 -49.3056 -48.9724 -48.9724 -48.9709 -48.9709
   -48.7116 -48.7115 -48.7101 -48.7100 -48.4289 -48.4228 -48.4228 -48.4202
   -48.3789 -48.3730 -48.3730 -48.3693  -5.1787  -4.3000  -3.3002  -3.2469
    -3.0512  -2.7760  -2.7759  -2.3351  -2.2070  -1.9633  -1.9633  -1.7149
    -1.3467  -1.3467  -1.0650  -1.0650  -1.0130  -0.8368  -0.8145  -0.8145
    -0.4720   0.3489   0.7264   0.7488   0.9817

          k = 0.0000 0.0994 0.0000 (132291 PWs)   bands (ev):

   -49.3071 -49.3070 -49.3057 -49.3056 -48.9724 -48.9724 -48.9709 -48.9709
   -48.7116 -48.7115 -48.7101 -48.7100 -48.4289 -48.4228 -48.4228 -48.4202
   -48.3789 -48.3730 -48.3730 -48.3693  -5.1553  -4.2810  -3.6510  -3.0949
    -2.8248  -2.7549  -2.7549  -2.6079  -1.9562  -1.9562  -1.8936  -1.6762
    -1.4815  -1.4815  -1.2914  -1.1147  -1.1147  -0.7291  -0.6434  -0.6433
    -0.2772   0.2301   0.7277   0.8154   0.9408

          k = 0.0000 0.1988 0.0000 (132273 PWs)   bands (ev):

   -49.3071 -49.3070 -49.3057 -49.3056 -48.9724 -48.9724 -48.9709 -48.9709
   -48.7116 -48.7115 -48.7101 -48.7100 -48.4289 -48.4228 -48.4228 -48.4203
   -48.3789 -48.3730 -48.3730 -48.3693  -5.0854  -4.2427  -3.9660  -3.2018
    -2.7688  -2.6921  -2.6921  -2.3790  -1.9523  -1.9523  -1.7387  -1.7076
    -1.7076  -1.6287  -1.3607  -1.1845  -1.1845  -0.7860  -0.3811  -0.3811
     0.0791   0.1460   0.7614   0.9219   1.0037

          k = 0.0000 0.2981 0.0000 (132193 PWs)   bands (ev):

   -49.3071 -49.3070 -49.3057 -49.3056 -48.9724 -48.9724 -48.9709 -48.9709
   -48.7116 -48.7115 -48.7101 -48.7100 -48.4288 -48.4228 -48.4228 -48.4203
   -48.3789 -48.3730 -48.3730 -48.3694  -4.9690  -4.3648  -4.0322  -3.4351
    -2.7197  -2.5881  -2.5881  -2.0622  -2.0621  -2.0399  -1.8973  -1.8053
    -1.8053  -1.5302  -1.2609  -1.2609  -1.0908  -0.8719  -0.1750  -0.1750
     0.0111   0.5109   0.8425   0.8426   1.0093

          k = 0.0000 0.3975 0.0000 (132254 PWs)   bands (ev):

   -49.3071 -49.3070 -49.3057 -49.3056 -48.9724 -48.9724 -48.9709 -48.9709
   -48.7116 -48.7115 -48.7101 -48.7100 -48.4288 -48.4228 -48.4228 -48.4204
   -48.3788 -48.3730 -48.3730 -48.3694  -4.8071  -4.6000  -3.9036  -3.6614
    -2.6063  -2.4459  -2.4459  -2.2586  -2.2586  -2.2315  -1.7930  -1.7930
    -1.5952  -1.4060  -1.3159  -1.3159  -1.1596  -0.7670  -0.0685  -0.0685
    -0.0142   0.6141   0.9035   0.9036   0.9755

          k = 0.1000 0.0000 0.0000 (132267 PWs)   bands (ev):

   -49.3071 -49.3070 -49.3057 -49.3056 -48.9724 -48.9724 -48.9709 -48.9709
   -48.7116 -48.7115 -48.7101 -48.7101 -48.4289 -48.4236 -48.4222 -48.4202
   -48.3788 -48.3738 -48.3723 -48.3694  -5.1549  -4.2759  -3.2762  -3.2349
    -3.2222  -3.0266  -2.3866  -2.3114  -2.2691  -2.1807  -1.6879  -1.5848
    -1.4907  -1.4720  -1.2959  -1.0223  -0.9855  -0.8081  -0.7176  -0.6870
    -0.4505   0.3764   0.5990   0.7770   1.0116

          k = 0.1000 0.0994 0.0000 (132284 PWs)   bands (ev):

   -49.3071 -49.3070 -49.3057 -49.3056 -48.9724 -48.9724 -48.9709 -48.9709
   -48.7116 -48.7115 -48.7101 -48.7101 -48.4288 -48.4236 -48.4222 -48.4202
   -48.3788 -48.3738 -48.3723 -48.3694  -5.1316  -4.2569  -3.6269  -3.2130
    -3.0703  -2.8002  -2.5833  -2.3738  -2.2495  -1.8672  -1.8269  -1.6501
    -1.5346  -1.3464  -1.2761  -1.2650  -1.0466  -0.7782  -0.6987  -0.4865
    -0.2560   0.2564   0.6150   0.8450   0.9712

          k = 0.1000 0.1988 0.0000 (132274 PWs)   bands (ev):

   -49.3071 -49.3070 -49.3057 -49.3056 -48.9724 -48.9724 -48.9709 -48.9709
   -48.7116 -48.7115 -48.7101 -48.7101 -48.4288 -48.4235 -48.4222 -48.4203
   -48.3788 -48.3738 -48.3723 -48.3694  -5.0616  -4.2187  -3.9419  -3.1776
    -3.1473  -2.7438  -2.3550  -2.3535  -2.1913  -2.0994  -1.7138  -1.6006
    -1.5949  -1.4059  -1.3627  -1.3344  -1.0528  -0.7568  -0.5576  -0.2796
     0.1044   0.1698   0.6094   0.9515   1.0350

          k = 0.1000 0.2981 0.0000 (132220 PWs)   bands (ev):

   -49.3071 -49.3070 -49.3057 -49.3056 -48.9724 -48.9724 -48.9709 -48.9709
   -48.7116 -48.7115 -48.7101 -48.7101 -48.4287 -48.4235 -48.4222 -48.4203
   -48.3788 -48.3738 -48.3723 -48.3694  -4.9452  -4.3411  -4.0081  -3.4110
    -3.0382  -2.6948  -2.4772  -2.1764  -2.0918  -2.0138  -1.8714  -1.7208
    -1.5800  -1.5011  -1.4102  -1.0638  -1.0221  -0.8439  -0.3384  -0.0872
     0.0375   0.5340   0.6277   1.0381   1.1457

          k = 0.1000 0.3975 0.0000 (132260 PWs)   bands (ev):

   -49.3071 -49.3070 -49.3057 -49.3056 -48.9724 -48.9724 -48.9709 -48.9709
   -48.7116 -48.7115 -48.7101 -48.7101 -48.4287 -48.4235 -48.4222 -48.4204
   -48.3788 -48.3738 -48.3723 -48.3694  -4.7834  -4.5763  -3.8796  -3.6371
    -2.8874  -2.6927  -2.5819  -2.2058  -2.1131  -1.9564  -1.8401  -1.7812
    -1.5658  -1.4049  -1.3760  -1.1333  -1.0065  -0.7399  -0.2393   0.0124
     0.0167   0.6309   0.8062   1.0006   1.0022

          k = 0.2000 0.0000 0.0000 (132209 PWs)   bands (ev):

   -49.3070 -49.3069 -49.3058 -49.3057 -48.9723 -48.9722 -48.9710 -48.9710
   -48.7115 -48.7114 -48.7102 -48.7102 -48.4286 -48.4243 -48.4216 -48.4202
   -48.3786 -48.3746 -48.3716 -48.3695  -5.0835  -4.2035  -3.6452  -3.2043
    -3.1484  -2.9530  -2.7774  -2.2409  -2.1020  -1.8607  -1.7764  -1.7163
    -1.6087  -1.6075  -1.1241  -1.1226  -0.9038  -0.7234  -0.6906  -0.5664
    -0.3866   0.4559   0.5613   0.6310   0.8605

          k = 0.2000 0.0994 0.0000 (132275 PWs)   bands (ev):

   -49.3070 -49.3069 -49.3058 -49.3057 -48.9723 -48.9722 -48.9710 -48.9710
   -48.7115 -48.7114 -48.7102 -48.7102 -48.4286 -48.4243 -48.4216 -48.4202
   -48.3786 -48.3746 -48.3716 -48.3695  -5.0602  -4.1846  -3.6227  -3.5549
    -2.9964  -2.7620  -2.7266  -2.5098  -2.1754  -1.7885  -1.7059  -1.6367
    -1.5725  -1.4363  -1.3381  -1.1866  -0.9553  -0.7059  -0.6076  -0.4917
    -0.1943   0.3331   0.5053   0.6563   0.9331

          k = 0.2000 0.1988 0.0000 (132192 PWs)   bands (ev):

   -49.3070 -49.3069 -49.3058 -49.3057 -48.9723 -48.9722 -48.9710 -48.9710
   -48.7115 -48.7114 -48.7102 -48.7102 -48.4285 -48.4243 -48.4217 -48.4203
   -48.3786 -48.3746 -48.3716 -48.3695  -4.9903  -4.1469  -3.8698  -3.5553
    -3.1052  -2.7367  -2.6691  -2.4690  -2.2773  -1.7791  -1.6520  -1.6398
    -1.5164  -1.4424  -1.2564  -1.1457  -0.9061  -0.6813  -0.6696  -0.2944
     0.1775   0.2401   0.4061   0.7245   1.0400

          k = 0.2000 0.2981 0.0000 (132253 PWs)   bands (ev):

   -49.3070 -49.3069 -49.3058 -49.3057 -48.9723 -48.9722 -48.9710 -48.9710
   -48.7115 -48.7114 -48.7102 -48.7102 -48.4285 -48.4243 -48.4217 -48.4204
   -48.3785 -48.3746 -48.3716 -48.3695  -4.8740  -4.2699  -3.9357  -3.4433
    -3.3388  -2.8638  -2.6206  -2.5339  -1.9903  -1.9362  -1.7941  -1.5810
    -1.4377  -1.4143  -1.1506  -0.9836  -0.8623  -0.7607  -0.4933  -0.0694
     0.1151   0.3575   0.6000   0.8191   1.1240

          k = 0.2000 0.3975 0.0000 (132216 PWs)   bands (ev):

   -49.3070 -49.3069 -49.3058 -49.3057 -48.9723 -48.9722 -48.9710 -48.9710
   -48.7115 -48.7114 -48.7102 -48.7102 -48.4284 -48.4243 -48.4217 -48.4204
   -48.3785 -48.3746 -48.3716 -48.3695  -4.7122  -4.5051  -3.8078  -3.5644
    -3.2879  -3.0880  -2.5092  -2.4374  -2.1750  -2.1293  -1.5038  -1.4779
    -1.4208  -1.2862  -1.2416  -1.0553  -0.8627  -0.6597  -0.3154   0.0569
     0.0909   0.4863   0.6751   0.8357   0.9712

          k = 0.3000 0.0000 0.0000 (132129 PWs)   bands (ev):

   -49.3068 -49.3067 -49.3060 -49.3059 -48.9721 -48.9721 -48.9712 -48.9712
   -48.7113 -48.7112 -48.7104 -48.7103 -48.4281 -48.4252 -48.4212 -48.4203
   -48.3782 -48.3754 -48.3710 -48.3696  -4.9645  -4.0831  -4.0065  -3.1289
    -3.0850  -3.0261  -2.8313  -2.1716  -2.1249  -2.0902  -1.9724  -1.9121
    -1.4755  -1.3279  -1.1249  -1.1010  -0.7706  -0.6371  -0.5887  -0.5248
    -0.2825   0.3089   0.5734   0.7170   0.8474

          k = 0.3000 0.0994 0.0000 (132202 PWs)   bands (ev):

   -49.3068 -49.3067 -49.3060 -49.3059 -48.9721 -48.9721 -48.9712 -48.9712
   -48.7113 -48.7112 -48.7104 -48.7103 -48.4281 -48.4252 -48.4212 -48.4203
   -48.3782 -48.3754 -48.3710 -48.3696  -4.9412  -4.0643  -3.9837  -3.4353
    -3.1121  -2.8742  -2.6051  -2.5052  -2.3886  -1.9462  -1.7042  -1.6592
    -1.5360  -1.4455  -1.1201  -1.0593  -0.8427  -0.6442  -0.5514  -0.4569
    -0.0997   0.2848   0.4493   0.7265   0.8247

          k = 0.3000 0.1988 0.0000 (132217 PWs)   bands (ev):

   -49.3068 -49.3067 -49.3060 -49.3059 -48.9721 -48.9721 -48.9712 -48.9712
   -48.7113 -48.7112 -48.7104 -48.7103 -48.4281 -48.4252 -48.4212 -48.4204
   -48.3781 -48.3754 -48.3710 -48.3696  -4.8713  -4.0274  -3.9152  -3.7500
    -3.0828  -2.9853  -2.8090  -2.5460  -2.1517  -2.0745  -1.6660  -1.5196
    -1.3774  -1.2741  -1.1297  -1.1053  -0.7695  -0.5864  -0.5267  -0.4237
     0.2413   0.2853   0.3534   0.6813   0.8329

          k = 0.3000 0.2981 0.0000 (132213 PWs)   bands (ev):

   -49.3068 -49.3067 -49.3060 -49.3059 -48.9721 -48.9721 -48.9712 -48.9712
   -48.7113 -48.7112 -48.7104 -48.7103 -48.4280 -48.4251 -48.4212 -48.4204
   -48.3781 -48.3754 -48.3710 -48.3696  -4.7551  -4.1514  -3.8153  -3.8014
    -3.2190  -3.2110  -2.8722  -2.4984  -2.3001  -1.8093  -1.6669  -1.6434
    -1.2713  -1.1224  -0.8945  -0.8536  -0.8297  -0.6247  -0.5727  -0.0866
     0.1744   0.2367   0.6747   0.6969   0.8171

          k = 0.3000 0.3975 0.0000 (132193 PWs)   bands (ev):

   -49.3068 -49.3067 -49.3060 -49.3059 -48.9721 -48.9721 -48.9712 -48.9712
   -48.7113 -48.7112 -48.7104 -48.7103 -48.4280 -48.4251 -48.4213 -48.4204
   -48.3781 -48.3754 -48.3710 -48.3696  -4.5934  -4.3864  -3.6885  -3.6432
    -3.4436  -3.4401  -2.7621  -2.5047  -2.3898  -2.0032  -1.5911  -1.3326
    -1.1762  -1.1380  -0.9290  -0.8368  -0.7841  -0.5312  -0.3453   0.0078
     0.2004   0.2149   0.6322   0.7219   0.8593

          k = 0.4000 0.0000 0.0000 (132185 PWs)   bands (ev):

   -49.3066 -49.3065 -49.3062 -49.3061 -48.9719 -48.9719 -48.9714 -48.9714
   -48.7111 -48.7110 -48.7106 -48.7105 -48.4275 -48.4260 -48.4208 -48.4204
   -48.3776 -48.3762 -48.3706 -48.3699  -4.7975  -4.3188  -3.9148  -3.4368
    -2.9195  -2.8563  -2.6629  -2.4585  -2.3837  -2.1975  -1.9667  -1.7950
    -1.5506  -1.3290  -1.2961  -0.8424  -0.5945  -0.5682  -0.4248  -0.3140
    -0.1364   0.0978   0.3690   0.6342   1.0329

          k = 0.4000 0.0994 0.0000 (132185 PWs)   bands (ev):

   -49.3066 -49.3065 -49.3062 -49.3061 -48.9719 -48.9719 -48.9714 -48.9714
   -48.7111 -48.7110 -48.7106 -48.7105 -48.4275 -48.4260 -48.4209 -48.4204
   -48.3776 -48.3762 -48.3706 -48.3699  -4.7742  -4.2958  -3.8963  -3.4192
    -3.2688  -2.8011  -2.7048  -2.4373  -2.2353  -2.2226  -1.9781  -1.7801
    -1.4829  -1.2741  -1.0307  -0.8914  -0.8480  -0.6610  -0.3308  -0.2505
     0.0086   0.1747   0.4117   0.5437   0.9695

          k = 0.4000 0.1988 0.0000 (132186 PWs)   bands (ev):

   -49.3066 -49.3065 -49.3062 -49.3061 -48.9719 -48.9719 -48.9714 -48.9714
   -48.7111 -48.7110 -48.7106 -48.7105 -48.4275 -48.4260 -48.4209 -48.4205
   -48.3776 -48.3762 -48.3706 -48.3699  -4.7045  -4.2266  -3.8606  -3.5828
    -3.3871  -3.1105  -2.8191  -2.3767  -2.3582  -1.9795  -1.9218  -1.5208
    -1.3585  -1.1869  -0.9827  -0.9619  -0.7310  -0.6146  -0.3351  -0.3323
     0.1818   0.3839   0.4926   0.5837   0.8486

          k = 0.4000 0.2981 0.0000 (132121 PWs)   bands (ev):

   -49.3066 -49.3065 -49.3062 -49.3061 -48.9719 -48.9719 -48.9714 -48.9714
   -48.7111 -48.7110 -48.7106 -48.7105 -48.4274 -48.4260 -48.4209 -48.4205
   -48.3776 -48.3762 -48.3706 -48.3699  -4.5885  -4.1117  -3.9858  -3.6475
    -3.5148  -3.1738  -3.0526  -2.5887  -2.3308  -1.8854  -1.6374  -1.4930
    -1.2102  -1.0765  -1.0448  -0.6826  -0.6691  -0.4439  -0.3460  -0.2875
     0.1589   0.3723   0.6307   0.7809   0.8617

          k = 0.4000 0.3975 0.0000 (132165 PWs)   bands (ev):

   -49.3066 -49.3065 -49.3062 -49.3061 -48.9719 -48.9719 -48.9714 -48.9714
   -48.7111 -48.7110 -48.7106 -48.7105 -48.4274 -48.4259 -48.4209 -48.4205
   -48.3776 -48.3762 -48.3706 -48.3699  -4.4271  -4.2203  -3.9519  -3.7468
    -3.5225  -3.2755  -3.0561  -2.8031  -2.2271  -1.8305  -1.8050  -1.3762
    -1.1330  -0.9351  -0.7626  -0.6355  -0.5897  -0.3686  -0.3550  -0.2796
     0.2323   0.3628   0.5206   0.7065   1.0173

          k =-0.5000 0.0000 0.0000 (132264 PWs)   bands (ev):

   -49.3064 -49.3064 -49.3064 -49.3063 -48.9717 -48.9716 -48.9716 -48.9716
   -48.7108 -48.7108 -48.7108 -48.7108 -48.4268 -48.4268 -48.4206 -48.4206
   -48.3770 -48.3769 -48.3702 -48.3702  -4.5824  -4.5824  -3.6992  -3.6992
    -2.7097  -2.7097  -2.6411  -2.6411  -2.4502  -2.4502  -1.7718  -1.7718
    -1.5757  -1.5757  -1.0781  -1.0781  -0.4164  -0.4164  -0.2967  -0.2966
     0.0729   0.0729   0.3037   0.3038   1.1988

          k =-0.5000 0.0994 0.0000 (132112 PWs)   bands (ev):

   -49.3064 -49.3064 -49.3064 -49.3063 -48.9717 -48.9716 -48.9716 -48.9716
   -48.7108 -48.7108 -48.7108 -48.7108 -48.4268 -48.4268 -48.4206 -48.4206
   -48.3769 -48.3769 -48.3702 -48.3702  -4.5592  -4.5592  -3.6811  -3.6810
    -3.0567  -3.0567  -2.4906  -2.4906  -2.2264  -2.2264  -2.0165  -2.0165
    -1.2670  -1.2670  -1.0680  -1.0679  -0.7097  -0.7097  -0.0372  -0.0372
     0.0797   0.0797   0.3492   0.3493   1.0299

          k =-0.5000 0.1988 0.0000 (132094 PWs)   bands (ev):

   -49.3064 -49.3064 -49.3064 -49.3063 -48.9717 -48.9716 -48.9716 -48.9716
   -48.7108 -48.7108 -48.7108 -48.7108 -48.4268 -48.4268 -48.4206 -48.4206
   -48.3769 -48.3769 -48.3702 -48.3702  -4.4897  -4.4897  -3.6469  -3.6468
    -3.3692  -3.3692  -2.6088  -2.6088  -2.1657  -2.1657  -1.7658  -1.7657
    -1.1682  -1.1682  -0.9538  -0.9538  -0.7731  -0.7731  -0.1354  -0.1354
     0.2753   0.2754   0.5704   0.5705   0.8871

          k =-0.5000 0.2981 0.0000 (132068 PWs)   bands (ev):

   -49.3064 -49.3064 -49.3064 -49.3063 -48.9717 -48.9716 -48.9716 -48.9716
   -48.7108 -48.7108 -48.7108 -48.7108 -48.4267 -48.4267 -48.4207 -48.4207
   -48.3769 -48.3769 -48.3702 -48.3702  -4.3740  -4.3740  -3.7734  -3.7734
    -3.4332  -3.4332  -2.8416  -2.8415  -2.1230  -2.1230  -1.4299  -1.4299
    -1.2793  -1.2793  -0.8454  -0.8454  -0.4923  -0.4923  -0.2526  -0.2525
     0.3370   0.3370   0.7054   0.7055   0.9676

          k =-0.5000 0.3975 0.0000 (132134 PWs)   bands (ev):

   -49.3064 -49.3064 -49.3064 -49.3063 -48.9717 -48.9716 -48.9716 -48.9716
   -48.7108 -48.7108 -48.7108 -48.7108 -48.4267 -48.4267 -48.4207 -48.4207
   -48.3769 -48.3769 -48.3702 -48.3702  -4.2132  -4.2132  -4.0071  -4.0070
    -3.3110  -3.3109  -3.0614  -3.0613  -2.0277  -2.0276  -1.6169  -1.6169
    -0.8867  -0.8867  -0.7000  -0.7000  -0.5703  -0.5702  -0.2274  -0.2273
     0.4171   0.4171   0.5633   0.5634   1.1470

     the Fermi energy is    -1.8855 ev

!    total energy              =    -300.63944485 Ry
     total all-electron energy =      -300.639607 Ry
     estimated scf accuracy    <       0.00000030 Ry
     smearing contrib. (-TS)   =      -0.00027667 Ry
     internal energy E=F+TS    =    -300.63916818 Ry

     The total energy is F=E-TS. E is the sum of the following terms:
     one-electron contribution =   -1514.14423316 Ry
     hartree contribution      =     726.06011588 Ry
     xc contribution           =     -71.50729173 Ry
     ewald contribution        =     557.18846280 Ry
     one-center paw contrib.   =       1.76377802 Ry

     convergence has been achieved in  19 iterations

     Forces acting on atoms (cartesian axes, Ry/au):

     atom    1 type  1   force =     0.00000000   -0.00005183   -0.00015972
     atom    2 type  1   force =     0.00000000    0.00001514   -0.00009686
     atom    3 type  1   force =     0.00000000   -0.00006267    0.00007863
     atom    4 type  1   force =     0.00000000   -0.00002219    0.00011760
     atom    5 type  1   force =     0.00000000   -0.00005966   -0.00014140
     atom    6 type  1   force =    -0.00000381   -0.00001508    0.00010006
     atom    7 type  1   force =     0.00000256    0.00004916    0.00015681
     atom    8 type  1   force =     0.00000033    0.00006188    0.00013719
     atom    9 type  1   force =     0.00000010    0.00002159   -0.00012065
     atom   10 type  1   force =    -0.00000096    0.00006389   -0.00007680
     atom   11 type  1   force =     0.00000000   -0.00005105   -0.00015646
     atom   12 type  1   force =     0.00000000    0.00001018   -0.00009804
     atom   13 type  1   force =     0.00000000   -0.00005997    0.00008005
     atom   14 type  1   force =     0.00000000   -0.00002006    0.00012176
     atom   15 type  1   force =     0.00000000   -0.00006077   -0.00013878
     atom   16 type  1   force =     0.00000381   -0.00001508    0.00010006
     atom   17 type  1   force =    -0.00000256    0.00004916    0.00015681
     atom   18 type  1   force =    -0.00000033    0.00006188    0.00013719
     atom   19 type  1   force =    -0.00000010    0.00002159   -0.00012065
     atom   20 type  1   force =     0.00000096    0.00006389   -0.00007680

     Total force =     0.000584     Total SCF correction =     0.000495
     SCF correction compared to forces is large: reduce conv_thr to get better values

     BFGS Geometry Optimization
     Energy error            =      3.4E-07 Ry
     Gradient error          =      1.6E-04 Ry/Bohr

     bfgs converged in   1 scf cycles and   0 bfgs steps
     (criteria: energy <  1.0E-05 Ry, force <  3.9E-04 Ry/Bohr)

     End of BFGS Geometry Optimization

     Final energy             =    -300.6394448498 Ry
Begin final coordinates

ATOMIC_POSITIONS (angstrom)
Li              -0.0000000600        3.1648570700       17.2625739200
Li              -0.0000000600        6.1249244200       15.7693355600
Li              -0.0000000500        1.5362319100       14.2414956700
Li              -0.0000000700        4.3358175900       12.6310834900
Li              -0.0000000700        0.5201248400       18.8303966000
Li               1.7176630400        3.8606076100       14.9557051500
Li               1.7174717200        6.8207812400       13.4623917800
Li               1.7175605900        1.7842207600       11.8945160700
Li               1.7176470000        5.6497258900       18.0939930800
Li               1.7176005700        0.7681738900       16.4835105200
Li               3.4351561700        3.1648244300       17.2626036800
Li               3.4351561700        6.1250321000       15.7692003200
Li               3.4351561500        1.5361542900       14.2413915000
Li               3.4351561600        4.3359867600       12.6308989800
Li               3.4351561800        0.5202117100       18.8304933400
Li               5.1526492900        3.8606076000       14.9557051400
Li               5.1528406200        6.8207812400       13.4623917900
Li               5.1527517400        1.7842207500       11.8945160900
Li               5.1526653500        5.6497258900       18.0939930700
Li               5.1527117700        0.7681738900       16.4835105000
End final coordinates


     Message from routine punch:
     Nothing written, as per user request (disk_io='none')
 
     init_run     :      4.54s CPU      4.84s WALL (       1 calls)
     electrons    :     46.20s CPU     48.12s WALL (       1 calls)
     forces       :      0.21s CPU      0.25s WALL (       1 calls)

     Called by init_run:
     wfcinit      :      1.13s CPU      1.20s WALL (       1 calls)
     potinit      :      0.24s CPU      0.31s WALL (       1 calls)
     hinit0       :      0.02s CPU      0.06s WALL (       1 calls)

     Called by electrons:
     c_bands      :     35.75s CPU     36.20s WALL (      19 calls)
     sum_band     :      6.25s CPU      6.85s WALL (      19 calls)
     v_of_rho     :      1.11s CPU      1.22s WALL (      20 calls)
     newd         :      0.33s CPU      0.89s WALL (      20 calls)
     PAW_pot      :      0.49s CPU      0.55s WALL (      20 calls)
     mix_rho      :      1.90s CPU      2.09s WALL (      19 calls)

     Called by c_bands:
     init_us_2    :      0.59s CPU      0.61s WALL (     400 calls)
     cegterg      :     28.50s CPU     28.90s WALL (     190 calls)

     Called by *egterg:
     cdiaghg      :      2.71s CPU      2.74s WALL (    1314 calls)
     h_psi        :     20.82s CPU     21.15s WALL (    1324 calls)
     s_psi        :      1.73s CPU      1.74s WALL (    1324 calls)
     g_psi        :      0.02s CPU      0.02s WALL (    1124 calls)

     Called by h_psi:
     h_psi:calbec :      2.25s CPU      2.34s WALL (    1324 calls)
     vloc_psi     :     16.22s CPU     16.42s WALL (    1324 calls)
                                        0.00s GPU  (    1324 calls)
     add_vuspsi   :      2.20s CPU      2.23s WALL (    1324 calls)

     General routines
     calbec       :      2.86s CPU      2.97s WALL (    1554 calls)
     fft          :      0.76s CPU      0.81s WALL (     260 calls)
     ffts         :      1.28s CPU      1.30s WALL (    2117 calls)
     fftw         :     18.15s CPU     18.37s WALL (   51634 calls)
     interpolate  :      0.07s CPU      0.07s WALL (      20 calls)
 
     Parallel routines
 
     PWSCF        :     51.79s CPU     54.66s WALL

 
   This run was terminated on:   0:36:50  23Jan2025            

=------------------------------------------------------------------------------=
   JOB DONE.
=------------------------------------------------------------------------------=
