
     Program PWSCF v.7.4 starts on  3Jan2025 at 12: 0: 7 

     This program is part of the open-source Quantum ESPRESSO suite
     for quantum simulation of materials; please cite
         "P. Giannozzi et al., J. Phys.:Condens. Matter 21 395502 (2009);
         "P. Giannozzi et al., J. Phys.:Condens. Matter 29 465901 (2017);
         "P. Giannozzi et al., J. Chem. Phys. 152 154105 (2020);
          URL http://www.quantum-espresso.org", 
     in publications or presentations arising from this work. More details at
     http://www.quantum-espresso.org/quote

     Parallel version (MPI & OpenMP), running on     512 processor cores
     Number of MPI processes:               512
     Threads/MPI process:                     1

     MPI processes distributed on     4 nodes
     230974 MiB available memory on the printing compute node when the environment starts

     Reading input from espresso.pwi
Warning: card &CELL ignored
Warning: card    PRESS_CONV_THR   = 0.1 ignored
Warning: card    CELL_DOFREE      = 'ALL' ignored
Warning: card / ignored
Warning: card &FCP ignored
Warning: card / ignored
Warning: card &RISM ignored
Warning: card / ignored

     Current dimensions of program PWSCF are:
     Max number of different atomic species (ntypx) = 10
     Max number of k-points (npk) =  40000
     Max angular momentum in pseudopotentials (lmaxx) =  4

     IMPORTANT: XC functional enforced from input :
     Exchange-correlation= PBE
                           (   1   4   3   4   0   0   0)
     Any further DFT definition will be discarded
     Please, verify this is what you really want


     Reading input from environ.in:
     * using ionic solvent mode
     * setting boundary derivatives method to SSCS default
     * setting electrolyte-boundary derivatives method to SSCS default

Environ Warning (1001): card EOF ignored

     

     K-points division:     npool     =       2
     R & G space division:  proc/nbgrp/npool/nimage =     256
     Subspace diagonalization in iterative solution of the eigenvalue problem:
     a serial algorithm will be used


     Parallelization info
     --------------------
     sticks:   dense  smooth     PW     G-vecs:    dense   smooth      PW
     Min          39      15      4                23005     5783     788
     Max          40      16      5                23062     5870     851
     Sum       10033    4007   1075              5896473  1491071  208783

     Using Slab Decomposition



     bravais-lattice index     =           12
     lattice parameter (alat)  =      11.2436  a.u.
     unit-cell volume          =   15431.5264 (a.u.)^3
     number of atoms/cell      =           28
     number of atomic types    =            1
     number of electrons       =        84.00
     number of Kohn-Sham states=           63
     kinetic-energy cutoff     =      80.0000  Ry
     charge density cutoff     =     800.0000  Ry
     scf convergence threshold =      1.0E-06
     mixing beta               =       0.2000
     number of iterations used =            8  local-TF  mixing
     energy convergence thresh.=      1.0E-05
     force convergence thresh. =      3.9E-04
     Exchange-correlation= PBE
                           (   1   4   3   4   0   0   0)
     nstep                     =          999


     ================================================================================

                                  Environ Setup Summary

     ================================================================================

     Please cite

          O. Andreussi, I. Dabo and N. Marzari, J. Chem. Phys. 136, 064102 (2012)
          F. Nattino, M. Truscott, N. Marzari, and O. Andreussi, J. Chem. Phys. 150, 041722 (2019)

     in publications or presentations arising from this work.

     ================================================================================

     Parameters
     ==========

     compensation onset threshold      =               0.1000E+00
     static permittivity               =                    89.90
     surface tension in input (dyn/cm) =                    37.30
     surface tension in internal units =               0.4792E-04

     Solvent Boundary
     ================

     solvent mode                      =                    ionic
     derivatives method                =                   lowmem
     electrolyte derivatives method    =                   lowmem
     numerical core for derivatives    =                      fft
     switching function adopted        =                     SCCS
     density limit for vacuum region   =               0.5000E-02
     density limit for bulk solvent    =               0.1000E-03
     soft-sphere radius mode           =                    bondi
     soft-sphere softness              =                     0.50
     alpha                             =                     1.32

     Electrostatic Setup
     ===================

     electrostatic problem to solve    =                    modpb
     numerical solver adopted          =                   newton
     type of auxiliary density adopted =                     none
     numerical core for poisson        =                      fft
     adopting a nested solver scheme
     inner solver                      =                       cg
     inner core                        =                      fft
     type of pbc corrections           =                parabolic
     numerical core for corrections    =                      1da

     ================================================================================


     >>>>> Grand-Canonical SCF is activated <<<<<
     Initial Total Charge  =     0.000000 e
     Target Fermi Energy   =    -2.404000 eV
     Thr. of Fermi Energy  =     0.001000 eV
     Wave-shift of Kerker  =     0.400000 bohr^-1
     Wave-shift of Hartree =     1.500000 bohr^-1
     Mixing Rate of Fermi  =     0.050000

     celldm(1)=  11.243615  celldm(2)=   1.258306  celldm(3)=   8.704589
     celldm(4)=  -0.132454  celldm(5)=   0.000000  celldm(6)=   0.000000

     crystal axes: (cart. coord. in units of alat)
               a(1) = (   1.000000   0.000000   0.000000 )  
               a(2) = (  -0.166667   1.247219   0.000000 )  
               a(3) = (   0.000000   0.000000   8.704589 )  

     reciprocal axes: (cart. coord. in units 2 pi/alat)
               b(1) = (  1.000000  0.133631 -0.000000 )  
               b(2) = (  0.000000  0.801784  0.000000 )  
               b(3) = (  0.000000 -0.000000  0.114882 )  


     PseudoPot. # 1 for Li read from file:
     /work/e89/e89/ba3g18/Repos/Pseudopotentials/Pslibrary/Li.pbe-sl-kjpaw_psl.1.0.0.UPF
     MD5 check sum: 3f4d2cafebb47c6c3aa8ed472e6f074d
     Pseudo is Projector augmented-wave, Zval =  3.0
     Generated using 'atomic' code by A. Dal Corso  v.7.4
     Shape of augmentation charge: PSQ
     Using radial grid of 1017 points,  4 beta functions with: 
                l(1) =   0
                l(2) =   0
                l(3) =   1
                l(4) =   1
     Q(r) pseudized with 0 coefficients 


     atomic species   valence    mass     pseudopotential
     Li                3.00     6.94000     Li( 1.00)

     No symmetry found


                                    s                        frac. trans.

      isym =  1     identity                                     

 cryst.   s( 1) = (     1          0          0      )
                  (     0          1          0      )
                  (     0          0          1      )

 cart.    s( 1) = (  1.0000000  0.0000000  0.0000000 )
                  (  0.0000000  1.0000000  0.0000000 )
                  (  0.0000000  0.0000000  1.0000000 )


     point group C_1 (1)    
     there are  1 classes
     the character table:

       E    
A      1.00

     the symmetry operations in each class and the name of the first element:

     E        1
          identity                                               

   Cartesian axes

     site n.     atom                  positions (alat units)
         1        Li     tau(   1) = (   0.0455010  -0.0416880   5.3488909  )
         2        Li     tau(   2) = (  -0.0455460   0.8435580   3.3549788  )
         3        Li     tau(   3) = (   0.1266236   0.3561597   3.4917538  )
         4        Li     tau(   4) = (   0.1711493   1.1719878   3.6702080  )
         5        Li     tau(   5) = (   0.3018842   0.7093877   3.7903797  )
         6        Li     tau(   6) = (  -0.0007488   0.2775031   3.9718732  )
         7        Li     tau(   7) = (  -0.0253267   1.0625755   4.1128850  )
         8        Li     tau(   8) = (   0.1809249   0.6332560   4.2751393  )
         9        Li     tau(   9) = (   0.3191167   0.1685050   4.4300964  )
        10        Li     tau(  10) = (   0.3586845   0.9864265   4.5921967  )
        11        Li     tau(  11) = (   0.0007704   0.5242644   4.7330456  )
        12        Li     tau(  12) = (   0.1981438   0.0923981   4.9141248  )
        13        Li     tau(  13) = (   0.1621491   0.8770054   5.0342180  )
        14        Li     tau(  14) = (   0.3733424   0.4455842   5.2123331  )
        15        Li     tau(  15) = (   0.5455028  -0.0416894   5.3488913  )
        16        Li     tau(  16) = (   0.4544426   0.8435569   3.3549799  )
        17        Li     tau(  17) = (   0.6266293   0.3561603   3.4917546  )
        18        Li     tau(  18) = (   0.6711505   1.1719911   3.6702095  )
        19        Li     tau(  19) = (   0.8018823   0.7093868   3.7903806  )
        20        Li     tau(  20) = (   0.4992527   0.2775039   3.9718736  )
        21        Li     tau(  21) = (   0.4746732   1.0625753   4.1128857  )
        22        Li     tau(  22) = (   0.6809248   0.6332555   4.2751382  )
        23        Li     tau(  23) = (   0.8191162   0.1685052   4.4300969  )
        24        Li     tau(  24) = (   0.8586848   0.9864264   4.5921968  )
        25        Li     tau(  25) = (   0.5007704   0.5242641   4.7330461  )
        26        Li     tau(  26) = (   0.6981430   0.0923982   4.9141256  )
        27        Li     tau(  27) = (   0.6621494   0.8770060   5.0342180  )
        28        Li     tau(  28) = (   0.8733433   0.4455849   5.2123326  )

   Crystallographic axes

     site n.     atom                  positions (cryst. coord.)
         1        Li     tau(   1) = (  0.0399302 -0.0334247  0.6144909  )
         2        Li     tau(   2) = (  0.0671794  0.6763512  0.3854264  )
         3        Li     tau(   3) = (  0.1742176  0.2855631  0.4011394  )
         4        Li     tau(   4) = (  0.3277631  0.9396808  0.4216406  )
         5        Li     tau(   5) = (  0.3966803  0.5687755  0.4354461  )
         6        Li     tau(   6) = (  0.0363342  0.2224975  0.4562965  )
         7        Li     tau(   7) = (  0.1166662  0.8519558  0.4724962  )
         8        Li     tau(   8) = (  0.2655474  0.5077344  0.4911363  )
         9        Li     tau(   9) = (  0.3416341  0.1351046  0.5089380  )
        10        Li     tau(  10) = (  0.4905016  0.7909008  0.5275604  )
        11        Li     tau(  11) = (  0.0708283  0.4203467  0.5437414  )
        12        Li     tau(  12) = (  0.2104910  0.0740833  0.5645441  )
        13        Li     tau(  13) = (  0.2793441  0.7031687  0.5783407  )
        14        Li     tau(  14) = (  0.4328863  0.3572622  0.5988029  )
        15        Li     tau(  15) = (  0.5399318 -0.0334258  0.6144910  )
        16        Li     tau(  16) = (  0.5671678  0.6763502  0.3854266  )
        17        Li     tau(  17) = (  0.6742234  0.2855636  0.4011395  )
        18        Li     tau(  18) = (  0.8277648  0.9396835  0.4216408  )
        19        Li     tau(  19) = (  0.8966783  0.5687748  0.4354462  )
        20        Li     tau(  20) = (  0.5363358  0.2224981  0.4562965  )
        21        Li     tau(  21) = (  0.6166661  0.8519557  0.4724963  )
        22        Li     tau(  22) = (  0.7655473  0.5077340  0.4911361  )
        23        Li     tau(  23) = (  0.8416337  0.1351047  0.5089381  )
        24        Li     tau(  24) = (  0.9905019  0.7909007  0.5275604  )
        25        Li     tau(  25) = (  0.5708283  0.4203464  0.5437415  )
        26        Li     tau(  26) = (  0.7104902  0.0740834  0.5645442  )
        27        Li     tau(  27) = (  0.7793445  0.7031692  0.5783407  )
        28        Li     tau(  28) = (  0.9328872  0.3572628  0.5988028  )

     number of k points=    50  Marzari-Vanderbilt smearing, width (Ry)=  0.0100
                       cart. coord. in units 2pi/alat
        k(    1) = (   0.0000000   0.0000000   0.0000000), wk =   0.0202020
        k(    2) = (   0.0000000   0.0890871   0.0000000), wk =   0.0404040
        k(    3) = (   0.0000000   0.1781742   0.0000000), wk =   0.0404040
        k(    4) = (   0.0000000   0.2672613   0.0000000), wk =   0.0404040
        k(    5) = (   0.0000000   0.3563484   0.0000000), wk =   0.0404040
        k(    6) = (   0.0909091   0.0121483   0.0000000), wk =   0.0404040
        k(    7) = (   0.0909091   0.1012354   0.0000000), wk =   0.0404040
        k(    8) = (   0.0909091   0.1903224   0.0000000), wk =   0.0404040
        k(    9) = (   0.0909091   0.2794095   0.0000000), wk =   0.0404040
        k(   10) = (   0.0909091   0.3684966   0.0000000), wk =   0.0404040
        k(   11) = (   0.0909091  -0.3442001   0.0000000), wk =   0.0404040
        k(   12) = (   0.0909091  -0.2551130   0.0000000), wk =   0.0404040
        k(   13) = (   0.0909091  -0.1660259   0.0000000), wk =   0.0404040
        k(   14) = (   0.0909091  -0.0769388   0.0000000), wk =   0.0404040
        k(   15) = (   0.1818182   0.0242965   0.0000000), wk =   0.0404040
        k(   16) = (   0.1818182   0.1133836   0.0000000), wk =   0.0404040
        k(   17) = (   0.1818182   0.2024707   0.0000000), wk =   0.0404040
        k(   18) = (   0.1818182   0.2915578   0.0000000), wk =   0.0404040
        k(   19) = (   0.1818182   0.3806449   0.0000000), wk =   0.0404040
        k(   20) = (   0.1818182  -0.3320518   0.0000000), wk =   0.0404040
        k(   21) = (   0.1818182  -0.2429647   0.0000000), wk =   0.0404040
        k(   22) = (   0.1818182  -0.1538777   0.0000000), wk =   0.0404040
        k(   23) = (   0.1818182  -0.0647906   0.0000000), wk =   0.0404040
        k(   24) = (   0.2727273   0.0364448   0.0000000), wk =   0.0404040
        k(   25) = (   0.2727273   0.1255319   0.0000000), wk =   0.0404040
        k(   26) = (   0.2727273   0.2146190   0.0000000), wk =   0.0404040
        k(   27) = (   0.2727273   0.3037061   0.0000000), wk =   0.0404040
        k(   28) = (   0.2727273   0.3927932   0.0000000), wk =   0.0404040
        k(   29) = (   0.2727273  -0.3199036   0.0000000), wk =   0.0404040
        k(   30) = (   0.2727273  -0.2308165   0.0000000), wk =   0.0404040
        k(   31) = (   0.2727273  -0.1417294   0.0000000), wk =   0.0404040
        k(   32) = (   0.2727273  -0.0526423   0.0000000), wk =   0.0404040
        k(   33) = (   0.3636364   0.0485931   0.0000000), wk =   0.0404040
        k(   34) = (   0.3636364   0.1376801   0.0000000), wk =   0.0404040
        k(   35) = (   0.3636364   0.2267672   0.0000000), wk =   0.0404040
        k(   36) = (   0.3636364   0.3158543   0.0000000), wk =   0.0404040
        k(   37) = (   0.3636364   0.4049414   0.0000000), wk =   0.0404040
        k(   38) = (   0.3636364  -0.3077553   0.0000000), wk =   0.0404040
        k(   39) = (   0.3636364  -0.2186682   0.0000000), wk =   0.0404040
        k(   40) = (   0.3636364  -0.1295811   0.0000000), wk =   0.0404040
        k(   41) = (   0.3636364  -0.0404940   0.0000000), wk =   0.0404040
        k(   42) = (   0.4545455   0.0607413   0.0000000), wk =   0.0404040
        k(   43) = (   0.4545455   0.1498284   0.0000000), wk =   0.0404040
        k(   44) = (   0.4545455   0.2389155   0.0000000), wk =   0.0404040
        k(   45) = (   0.4545455   0.3280026   0.0000000), wk =   0.0404040
        k(   46) = (   0.4545455   0.4170897   0.0000000), wk =   0.0404040
        k(   47) = (   0.4545455  -0.2956070   0.0000000), wk =   0.0404040
        k(   48) = (   0.4545455  -0.2065200   0.0000000), wk =   0.0404040
        k(   49) = (   0.4545455  -0.1174329   0.0000000), wk =   0.0404040
        k(   50) = (   0.4545455  -0.0283458   0.0000000), wk =   0.0404040

                       cryst. coord.
        k(    1) = (   0.0000000   0.0000000   0.0000000), wk =   0.0202020
        k(    2) = (   0.0000000   0.1111111   0.0000000), wk =   0.0404040
        k(    3) = (   0.0000000   0.2222222   0.0000000), wk =   0.0404040
        k(    4) = (   0.0000000   0.3333333   0.0000000), wk =   0.0404040
        k(    5) = (   0.0000000   0.4444444   0.0000000), wk =   0.0404040
        k(    6) = (   0.0909091  -0.0000000   0.0000000), wk =   0.0404040
        k(    7) = (   0.0909091   0.1111111   0.0000000), wk =   0.0404040
        k(    8) = (   0.0909091   0.2222222   0.0000000), wk =   0.0404040
        k(    9) = (   0.0909091   0.3333333   0.0000000), wk =   0.0404040
        k(   10) = (   0.0909091   0.4444444   0.0000000), wk =   0.0404040
        k(   11) = (   0.0909091  -0.4444444   0.0000000), wk =   0.0404040
        k(   12) = (   0.0909091  -0.3333333   0.0000000), wk =   0.0404040
        k(   13) = (   0.0909091  -0.2222222   0.0000000), wk =   0.0404040
        k(   14) = (   0.0909091  -0.1111111   0.0000000), wk =   0.0404040
        k(   15) = (   0.1818182  -0.0000000   0.0000000), wk =   0.0404040
        k(   16) = (   0.1818182   0.1111111   0.0000000), wk =   0.0404040
        k(   17) = (   0.1818182   0.2222222   0.0000000), wk =   0.0404040
        k(   18) = (   0.1818182   0.3333333   0.0000000), wk =   0.0404040
        k(   19) = (   0.1818182   0.4444444   0.0000000), wk =   0.0404040
        k(   20) = (   0.1818182  -0.4444444   0.0000000), wk =   0.0404040
        k(   21) = (   0.1818182  -0.3333333   0.0000000), wk =   0.0404040
        k(   22) = (   0.1818182  -0.2222222   0.0000000), wk =   0.0404040
        k(   23) = (   0.1818182  -0.1111111   0.0000000), wk =   0.0404040
        k(   24) = (   0.2727273   0.0000000   0.0000000), wk =   0.0404040
        k(   25) = (   0.2727273   0.1111111   0.0000000), wk =   0.0404040
        k(   26) = (   0.2727273   0.2222222   0.0000000), wk =   0.0404040
        k(   27) = (   0.2727273   0.3333333   0.0000000), wk =   0.0404040
        k(   28) = (   0.2727273   0.4444444   0.0000000), wk =   0.0404040
        k(   29) = (   0.2727273  -0.4444444   0.0000000), wk =   0.0404040
        k(   30) = (   0.2727273  -0.3333333   0.0000000), wk =   0.0404040
        k(   31) = (   0.2727273  -0.2222222   0.0000000), wk =   0.0404040
        k(   32) = (   0.2727273  -0.1111111   0.0000000), wk =   0.0404040
        k(   33) = (   0.3636364  -0.0000000   0.0000000), wk =   0.0404040
        k(   34) = (   0.3636364   0.1111111   0.0000000), wk =   0.0404040
        k(   35) = (   0.3636364   0.2222222   0.0000000), wk =   0.0404040
        k(   36) = (   0.3636364   0.3333333   0.0000000), wk =   0.0404040
        k(   37) = (   0.3636364   0.4444444   0.0000000), wk =   0.0404040
        k(   38) = (   0.3636364  -0.4444444   0.0000000), wk =   0.0404040
        k(   39) = (   0.3636364  -0.3333333   0.0000000), wk =   0.0404040
        k(   40) = (   0.3636364  -0.2222222   0.0000000), wk =   0.0404040
        k(   41) = (   0.3636364  -0.1111111   0.0000000), wk =   0.0404040
        k(   42) = (   0.4545455  -0.0000000   0.0000000), wk =   0.0404040
        k(   43) = (   0.4545455   0.1111111   0.0000000), wk =   0.0404040
        k(   44) = (   0.4545455   0.2222222   0.0000000), wk =   0.0404040
        k(   45) = (   0.4545455   0.3333333   0.0000000), wk =   0.0404040
        k(   46) = (   0.4545455   0.4444444   0.0000000), wk =   0.0404040
        k(   47) = (   0.4545455  -0.4444444   0.0000000), wk =   0.0404040
        k(   48) = (   0.4545455  -0.3333333   0.0000000), wk =   0.0404040
        k(   49) = (   0.4545455  -0.2222222   0.0000000), wk =   0.0404040
        k(   50) = (   0.4545455  -0.1111111   0.0000000), wk =   0.0404040

     Dense  grid:  5896473 G-vectors     FFT dimensions: ( 108, 128, 900)

     Smooth grid:  1491071 G-vectors     FFT dimensions: (  72,  81, 576)

     Dynamical RAM for                 wfc:       0.70 MB

     Dynamical RAM for     wfc (w. buffer):      18.20 MB

     Dynamical RAM for           str. fact:       0.35 MB

     Dynamical RAM for           local pot:       0.00 MB

     Dynamical RAM for          nlocal pot:       2.49 MB

     Dynamical RAM for                qrad:       0.65 MB

     Dynamical RAM for          rho,v,vnew:       2.32 MB

     Dynamical RAM for               rhoin:       0.77 MB

     Dynamical RAM for            rho*nmix:       5.62 MB

     Dynamical RAM for           G-vectors:       1.36 MB

     Dynamical RAM for          h,s,v(r/c):       2.91 MB

     Dynamical RAM for          <psi|beta>:       0.22 MB

     Dynamical RAM for                 psi:       2.80 MB

     Dynamical RAM for                hpsi:       2.80 MB

     Dynamical RAM for                spsi:       2.80 MB

     Dynamical RAM for      wfcinit/wfcrot:       1.49 MB

     Dynamical RAM for           addusdens:      12.65 MB

     Dynamical RAM for          addusforce:      22.17 MB

     Estimated static dynamical RAM per process >      28.95 MB

     Estimated max dynamical RAM per process >      89.97 MB

     Estimated total dynamical RAM >      26.96 GB

     Initial potential from superposition of free atoms

     starting charge      83.8710, renormalised to      84.0000

     negative rho (up, down):  2.642E-03 0.000E+00
     Starting wfcs are random
     Checking if some PAW data can be deallocated... 

     total cpu time spent up to now is       22.3 secs

     Self-consistent Calculation

     iteration #  1     ecut=    80.00 Ry     beta= 0.20
     Davidson diagonalization with overlap

---- Real-time Memory Report at c_bands before calling an iterative solver
           339 MiB given to the printing process from OS
             0 MiB allocation reported by mallinfo(arena+hblkhd)
        220034 MiB available memory on the node where the printing process lives
------------------
     c_bands:  1 eigenvalues not converged
     c_bands:  1 eigenvalues not converged
     c_bands:  1 eigenvalues not converged
     ethr =  1.00E-12,  avg # of iterations =111.9

     negative rho (up, down):  1.957E-03 0.000E+00

     add environment contribution to local potential

     total cpu time spent up to now is      219.2 secs

     total energy              =    -421.00244518 Ry
     estimated scf accuracy    <       0.09868632 Ry

     total charge of GC-SCF    =      -0.00644690 e
     the Fermi energy          =      -4.36071187 eV
                        (error :       1.95671187 eV)
     electrostatic embedding   =       0.00000000 Ry
     cavitation energy         =       0.01840838 Ry
     electrolyte free energy   =       0.00664192 Ry
     correction to one-el term =      -0.00000000 Ry

     iteration #  2     ecut=    80.00 Ry     beta= 0.20
     Davidson diagonalization with overlap

---- Real-time Memory Report at c_bands before calling an iterative solver
           339 MiB given to the printing process from OS
             0 MiB allocation reported by mallinfo(arena+hblkhd)
        220218 MiB available memory on the node where the printing process lives
------------------
     ethr =  1.00E-05,  avg # of iterations = 22.4

     negative rho (up, down):  1.521E-03 0.000E+00

     add environment contribution to local potential

     total cpu time spent up to now is      259.7 secs

     total energy              =    -421.07700312 Ry
     estimated scf accuracy    <       0.03934530 Ry

     total charge of GC-SCF    =      -0.01759162 e
     the Fermi energy          =      -3.32289736 eV
                        (error :       0.91889736 eV)
     electrostatic embedding   =      -0.02464091 Ry
     cavitation energy         =       0.01840838 Ry
     electrolyte free energy   =      -0.00320932 Ry
     correction to one-el term =       0.60232272 Ry

     iteration #  3     ecut=    80.00 Ry     beta= 0.20
     Davidson diagonalization with overlap

---- Real-time Memory Report at c_bands before calling an iterative solver
           339 MiB given to the printing process from OS
             0 MiB allocation reported by mallinfo(arena+hblkhd)
        220153 MiB available memory on the node where the printing process lives
------------------
     ethr =  1.00E-05,  avg # of iterations =  9.1

     negative rho (up, down):  1.145E-03 0.000E+00

     add environment contribution to local potential

     total cpu time spent up to now is      279.5 secs

     total energy              =    -420.98101465 Ry
     estimated scf accuracy    <       0.02215096 Ry

     total charge of GC-SCF    =      -0.06107865 e
     the Fermi energy          =      -3.21788208 eV
                        (error :       0.81388208 eV)
     electrostatic embedding   =      -0.02326868 Ry
     cavitation energy         =       0.01840838 Ry
     electrolyte free energy   =      -0.00298704 Ry
     correction to one-el term =       1.29085343 Ry

     iteration #  4     ecut=    80.00 Ry     beta= 0.20
     Davidson diagonalization with overlap

---- Real-time Memory Report at c_bands before calling an iterative solver
           339 MiB given to the printing process from OS
             0 MiB allocation reported by mallinfo(arena+hblkhd)
        220145 MiB available memory on the node where the printing process lives
------------------
     ethr =  1.00E-05,  avg # of iterations = 23.7

     negative rho (up, down):  9.842E-04 0.000E+00

     add environment contribution to local potential

     total cpu time spent up to now is      317.8 secs

     total energy              =    -421.01779177 Ry
     estimated scf accuracy    <       0.00371158 Ry

     total charge of GC-SCF    =      -0.12265652 e
     the Fermi energy          =      -2.75060692 eV
                        (error :       0.34660692 eV)
     electrostatic embedding   =      -0.02249015 Ry
     cavitation energy         =       0.01840838 Ry
     electrolyte free energy   =      -0.00114437 Ry
     correction to one-el term =       3.93062847 Ry

     iteration #  5     ecut=    80.00 Ry     beta= 0.20
     Davidson diagonalization with overlap

---- Real-time Memory Report at c_bands before calling an iterative solver
           339 MiB given to the printing process from OS
             0 MiB allocation reported by mallinfo(arena+hblkhd)
        220133 MiB available memory on the node where the printing process lives
------------------
     ethr =  4.41E-06,  avg # of iterations =  8.9

     negative rho (up, down):  8.538E-04 0.000E+00

     add environment contribution to local potential

     total cpu time spent up to now is      338.0 secs

     total energy              =    -421.01925931 Ry
     estimated scf accuracy    <       0.00272982 Ry

     total charge of GC-SCF    =      -0.18974450 e
     the Fermi energy          =      -2.68409919 eV
                        (error :       0.28009919 eV)
     electrostatic embedding   =      -0.02945348 Ry
     cavitation energy         =       0.01840838 Ry
     electrolyte free energy   =      -0.00076788 Ry
     correction to one-el term =       7.12817418 Ry

     iteration #  6     ecut=    80.00 Ry     beta= 0.20
     Davidson diagonalization with overlap

---- Real-time Memory Report at c_bands before calling an iterative solver
           339 MiB given to the printing process from OS
             0 MiB allocation reported by mallinfo(arena+hblkhd)
        220093 MiB available memory on the node where the printing process lives
------------------
     ethr =  3.24E-06,  avg # of iterations =  9.0

     negative rho (up, down):  8.012E-04 0.000E+00

     add environment contribution to local potential

     total cpu time spent up to now is      358.3 secs

     total energy              =    -421.02095763 Ry
     estimated scf accuracy    <       0.00096929 Ry

     total charge of GC-SCF    =      -0.34740114 e
     the Fermi energy          =      -2.61987573 eV
                        (error :       0.21587573 eV)
     electrostatic embedding   =      -0.04111372 Ry
     cavitation energy         =       0.01840838 Ry
     electrolyte free energy   =      -0.00051327 Ry
     correction to one-el term =      10.53599875 Ry

     iteration #  7     ecut=    80.00 Ry     beta= 0.20
     Davidson diagonalization with overlap

---- Real-time Memory Report at c_bands before calling an iterative solver
           339 MiB given to the printing process from OS
             0 MiB allocation reported by mallinfo(arena+hblkhd)
        220093 MiB available memory on the node where the printing process lives
------------------
     ethr =  1.15E-06,  avg # of iterations = 12.4

     negative rho (up, down):  7.223E-04 0.000E+00

     add environment contribution to local potential

     total cpu time spent up to now is      386.0 secs

     total energy              =    -421.02915045 Ry
     estimated scf accuracy    <       0.00025329 Ry

     total charge of GC-SCF    =      -0.38573894 e
     the Fermi energy          =      -2.54628913 eV
                        (error :       0.14228913 eV)
     electrostatic embedding   =      -0.08016265 Ry
     cavitation energy         =       0.01840838 Ry
     electrolyte free energy   =      -0.00056818 Ry
     correction to one-el term =      17.66781369 Ry

     iteration #  8     ecut=    80.00 Ry     beta= 0.20
     Davidson diagonalization with overlap

---- Real-time Memory Report at c_bands before calling an iterative solver
           339 MiB given to the printing process from OS
             0 MiB allocation reported by mallinfo(arena+hblkhd)
        220043 MiB available memory on the node where the printing process lives
------------------
     ethr =  3.00E-07,  avg # of iterations =  9.9

     negative rho (up, down):  6.516E-04 0.000E+00

     add environment contribution to local potential

     total cpu time spent up to now is      409.1 secs

     total energy              =    -421.02907657 Ry
     estimated scf accuracy    <       0.00013650 Ry

     total charge of GC-SCF    =      -0.45159904 e
     the Fermi energy          =      -2.56240115 eV
                        (error :       0.15840115 eV)
     electrostatic embedding   =      -0.09027580 Ry
     cavitation energy         =       0.01840838 Ry
     electrolyte free energy   =      -0.00063638 Ry
     correction to one-el term =      18.96112665 Ry

     iteration #  9     ecut=    80.00 Ry     beta= 0.20
     Davidson diagonalization with overlap

---- Real-time Memory Report at c_bands before calling an iterative solver
           339 MiB given to the printing process from OS
             0 MiB allocation reported by mallinfo(arena+hblkhd)
        220018 MiB available memory on the node where the printing process lives
------------------
     ethr =  1.62E-07,  avg # of iterations = 12.0

     negative rho (up, down):  5.934E-04 0.000E+00

     add environment contribution to local potential

     total cpu time spent up to now is      433.0 secs

     total energy              =    -421.03002741 Ry
     estimated scf accuracy    <       0.00004122 Ry

     total charge of GC-SCF    =      -0.52144638 e
     the Fermi energy          =      -2.58796361 eV
                        (error :       0.18396361 eV)
     electrostatic embedding   =      -0.10722874 Ry
     cavitation energy         =       0.01840838 Ry
     electrolyte free energy   =      -0.00074203 Ry
     correction to one-el term =      20.91209622 Ry

     iteration # 10     ecut=    80.00 Ry     beta= 0.20
     Davidson diagonalization with overlap

---- Real-time Memory Report at c_bands before calling an iterative solver
           339 MiB given to the printing process from OS
             0 MiB allocation reported by mallinfo(arena+hblkhd)
        219979 MiB available memory on the node where the printing process lives
------------------
     ethr =  4.88E-08,  avg # of iterations = 14.0

     negative rho (up, down):  5.240E-04 0.000E+00

     add environment contribution to local potential

     total cpu time spent up to now is      457.9 secs

     total energy              =    -421.03283304 Ry
     estimated scf accuracy    <       0.00002143 Ry

     total charge of GC-SCF    =      -0.54347987 e
     the Fermi energy          =      -2.56692499 eV
                        (error :       0.16292499 eV)
     electrostatic embedding   =      -0.12866378 Ry
     cavitation energy         =       0.01840838 Ry
     electrolyte free energy   =      -0.00082592 Ry
     correction to one-el term =      23.40570621 Ry

     iteration # 11     ecut=    80.00 Ry     beta= 0.20
     Davidson diagonalization with overlap

---- Real-time Memory Report at c_bands before calling an iterative solver
           339 MiB given to the printing process from OS
             0 MiB allocation reported by mallinfo(arena+hblkhd)
        219961 MiB available memory on the node where the printing process lives
------------------
     ethr =  2.53E-08,  avg # of iterations = 12.3

     negative rho (up, down):  4.697E-04 0.000E+00

     add environment contribution to local potential

     total cpu time spent up to now is      483.8 secs

     total energy              =    -421.03161977 Ry
     estimated scf accuracy    <       0.00004603 Ry

     total charge of GC-SCF    =      -0.61280481 e
     the Fermi energy          =      -2.54895664 eV
                        (error :       0.14495664 eV)
     electrostatic embedding   =      -0.13442486 Ry
     cavitation energy         =       0.01840838 Ry
     electrolyte free energy   =      -0.00082890 Ry
     correction to one-el term =      24.08900654 Ry

     iteration # 12     ecut=    80.00 Ry     beta= 0.20
     Davidson diagonalization with overlap

---- Real-time Memory Report at c_bands before calling an iterative solver
           339 MiB given to the printing process from OS
             0 MiB allocation reported by mallinfo(arena+hblkhd)
        219965 MiB available memory on the node where the printing process lives
------------------
     ethr =  2.53E-08,  avg # of iterations = 14.7

     negative rho (up, down):  4.226E-04 0.000E+00

     add environment contribution to local potential

     total cpu time spent up to now is      511.5 secs

     total energy              =    -421.03226692 Ry
     estimated scf accuracy    <       0.00004904 Ry

     total charge of GC-SCF    =      -0.70911137 e
     the Fermi energy          =      -2.53346942 eV
                        (error :       0.12946942 eV)
     electrostatic embedding   =      -0.15707239 Ry
     cavitation energy         =       0.01840838 Ry
     electrolyte free energy   =      -0.00093005 Ry
     correction to one-el term =      26.42028880 Ry

     iteration # 13     ecut=    80.00 Ry     beta= 0.20
     Davidson diagonalization with overlap

---- Real-time Memory Report at c_bands before calling an iterative solver
           339 MiB given to the printing process from OS
             0 MiB allocation reported by mallinfo(arena+hblkhd)
        219962 MiB available memory on the node where the printing process lives
------------------
     ethr =  2.53E-08,  avg # of iterations = 16.9

     negative rho (up, down):  3.915E-04 0.000E+00

     add environment contribution to local potential

     total cpu time spent up to now is      541.6 secs

     total energy              =    -421.03455923 Ry
     estimated scf accuracy    <       0.00001882 Ry

     total charge of GC-SCF    =      -0.74091929 e
     the Fermi energy          =      -2.52544204 eV
                        (error :       0.12144204 eV)
     electrostatic embedding   =      -0.19190263 Ry
     cavitation energy         =       0.01840838 Ry
     electrolyte free energy   =      -0.00111049 Ry
     correction to one-el term =      29.60196079 Ry

     iteration # 14     ecut=    80.00 Ry     beta= 0.20
     Davidson diagonalization with overlap

---- Real-time Memory Report at c_bands before calling an iterative solver
           339 MiB given to the printing process from OS
             0 MiB allocation reported by mallinfo(arena+hblkhd)
        219943 MiB available memory on the node where the printing process lives
------------------
     ethr =  2.22E-08,  avg # of iterations = 11.6

     negative rho (up, down):  3.630E-04 0.000E+00

     add environment contribution to local potential

     total cpu time spent up to now is      565.3 secs

     total energy              =    -421.03438799 Ry
     estimated scf accuracy    <       0.00001505 Ry

     total charge of GC-SCF    =      -0.86995594 e
     the Fermi energy          =      -2.51931900 eV
                        (error :       0.11531900 eV)
     electrostatic embedding   =      -0.20381840 Ry
     cavitation energy         =       0.01840838 Ry
     electrolyte free energy   =      -0.00117077 Ry
     correction to one-el term =      30.63806617 Ry

     iteration # 15     ecut=    80.00 Ry     beta= 0.20
     Davidson diagonalization with overlap

---- Real-time Memory Report at c_bands before calling an iterative solver
           339 MiB given to the printing process from OS
             0 MiB allocation reported by mallinfo(arena+hblkhd)
        219894 MiB available memory on the node where the printing process lives
------------------
     ethr =  1.77E-08,  avg # of iterations = 19.4

     negative rho (up, down):  3.338E-04 0.000E+00

     add environment contribution to local potential

     total cpu time spent up to now is      598.7 secs

     total energy              =    -421.04423948 Ry
     estimated scf accuracy    <       0.00001007 Ry

     total charge of GC-SCF    =      -1.14218290 e
     the Fermi energy          =      -2.49094118 eV
                        (error :       0.08694118 eV)
     electrostatic embedding   =      -0.25871796 Ry
     cavitation energy         =       0.01840838 Ry
     electrolyte free energy   =      -0.00149352 Ry
     correction to one-el term =      35.04123890 Ry

     iteration # 16     ecut=    80.00 Ry     beta= 0.20
     Davidson diagonalization with overlap

---- Real-time Memory Report at c_bands before calling an iterative solver
           339 MiB given to the printing process from OS
             0 MiB allocation reported by mallinfo(arena+hblkhd)
        219917 MiB available memory on the node where the printing process lives
------------------
     ethr =  1.18E-08,  avg # of iterations = 25.6

     negative rho (up, down):  3.244E-04 0.000E+00

     add environment contribution to local potential

     total cpu time spent up to now is      645.8 secs

     total energy              =    -421.03885447 Ry
     estimated scf accuracy    <       0.00000569 Ry

     total charge of GC-SCF    =      -1.08837405 e
     the Fermi energy          =      -2.43064480 eV
                        (error :       0.02664480 eV)
     electrostatic embedding   =      -0.39797808 Ry
     cavitation energy         =       0.01840838 Ry
     electrolyte free energy   =      -0.00247354 Ry
     correction to one-el term =      44.32210526 Ry

     iteration # 17     ecut=    80.00 Ry     beta= 0.20
     Davidson diagonalization with overlap

---- Real-time Memory Report at c_bands before calling an iterative solver
           339 MiB given to the printing process from OS
             0 MiB allocation reported by mallinfo(arena+hblkhd)
        219937 MiB available memory on the node where the printing process lives
------------------
     ethr =  6.69E-09,  avg # of iterations = 13.2

     negative rho (up, down):  3.142E-04 0.000E+00

     add environment contribution to local potential

     total cpu time spent up to now is      671.0 secs

     total energy              =    -421.03906279 Ry
     estimated scf accuracy    <       0.00000367 Ry

     total charge of GC-SCF    =      -1.21313206 e
     the Fermi energy          =      -2.44500992 eV
                        (error :       0.04100992 eV)
     electrostatic embedding   =      -0.36700556 Ry
     cavitation energy         =       0.01840838 Ry
     electrolyte free energy   =      -0.00223365 Ry
     correction to one-el term =      42.39124033 Ry

     iteration # 18     ecut=    80.00 Ry     beta= 0.20
     Davidson diagonalization with overlap

---- Real-time Memory Report at c_bands before calling an iterative solver
           339 MiB given to the printing process from OS
             0 MiB allocation reported by mallinfo(arena+hblkhd)
        219953 MiB available memory on the node where the printing process lives
------------------
     ethr =  4.30E-09,  avg # of iterations = 23.1

     negative rho (up, down):  3.059E-04 0.000E+00

     add environment contribution to local potential

     total cpu time spent up to now is      713.1 secs

     total energy              =    -421.03819046 Ry
     estimated scf accuracy    <       0.00000211 Ry

     total charge of GC-SCF    =      -1.26744835 e
     the Fermi energy          =      -2.42016390 eV
                        (error :       0.01616390 eV)
     electrostatic embedding   =      -0.43796017 Ry
     cavitation energy         =       0.01840838 Ry
     electrolyte free energy   =      -0.00278816 Ry
     correction to one-el term =      46.56191299 Ry

     iteration # 19     ecut=    80.00 Ry     beta= 0.20
     Davidson diagonalization with overlap

---- Real-time Memory Report at c_bands before calling an iterative solver
           339 MiB given to the printing process from OS
             0 MiB allocation reported by mallinfo(arena+hblkhd)
        219943 MiB available memory on the node where the printing process lives
------------------
     ethr =  2.47E-09,  avg # of iterations = 20.9

     negative rho (up, down):  3.002E-04 0.000E+00

     add environment contribution to local potential

     total cpu time spent up to now is      748.5 secs

     total energy              =    -421.03798115 Ry
     estimated scf accuracy    <       0.00000152 Ry

     total charge of GC-SCF    =      -1.28570343 e
     the Fermi energy          =      -2.41157008 eV
                        (error :       0.00757008 eV)
     electrostatic embedding   =      -0.47044670 Ry
     cavitation energy         =       0.01840838 Ry
     electrolyte free energy   =      -0.00305468 Ry
     correction to one-el term =      48.32036206 Ry

     iteration # 20     ecut=    80.00 Ry     beta= 0.20
     Davidson diagonalization with overlap

---- Real-time Memory Report at c_bands before calling an iterative solver
           339 MiB given to the printing process from OS
             0 MiB allocation reported by mallinfo(arena+hblkhd)
        219911 MiB available memory on the node where the printing process lives
------------------
     ethr =  1.78E-09,  avg # of iterations = 13.5

     negative rho (up, down):  2.942E-04 0.000E+00

     add environment contribution to local potential

     total cpu time spent up to now is      776.3 secs

     total energy              =    -421.03813423 Ry
     estimated scf accuracy    <       0.00000052 Ry

     total charge of GC-SCF    =      -1.31967134 e
     the Fermi energy          =      -2.41142638 eV
                        (error :       0.00742638 eV)
     electrostatic embedding   =      -0.48137992 Ry
     cavitation energy         =       0.01840838 Ry
     electrolyte free energy   =      -0.00314413 Ry
     correction to one-el term =      48.86528500 Ry

     iteration # 21     ecut=    80.00 Ry     beta= 0.20
     Davidson diagonalization with overlap

---- Real-time Memory Report at c_bands before calling an iterative solver
           339 MiB given to the printing process from OS
             0 MiB allocation reported by mallinfo(arena+hblkhd)
        219944 MiB available memory on the node where the printing process lives
------------------
     ethr =  6.06E-10,  avg # of iterations = 22.1

     negative rho (up, down):  2.886E-04 0.000E+00

     add environment contribution to local potential

     total cpu time spent up to now is      815.5 secs

     total energy              =    -421.03809902 Ry
     estimated scf accuracy    <       0.00000016 Ry

     total charge of GC-SCF    =      -1.34359507 e
     the Fermi energy          =      -2.40760643 eV
                        (error :       0.00360643 eV)
     electrostatic embedding   =      -0.50208334 Ry
     cavitation energy         =       0.01840838 Ry
     electrolyte free energy   =      -0.00331821 Ry
     correction to one-el term =      49.91378626 Ry

     iteration # 22     ecut=    80.00 Ry     beta= 0.20
     Davidson diagonalization with overlap

---- Real-time Memory Report at c_bands before calling an iterative solver
           339 MiB given to the printing process from OS
             0 MiB allocation reported by mallinfo(arena+hblkhd)
        219966 MiB available memory on the node where the printing process lives
------------------
     ethr =  1.84E-10,  avg # of iterations = 23.1

     negative rho (up, down):  2.715E-04 0.000E+00

     total cpu time spent up to now is      854.0 secs

     End of self-consistent calculation

          k = 0.0000 0.0000 0.0000 (186229 PWs)   bands (ev):

   -49.5781 -49.5761 -49.5702 -49.5681 -49.3082 -49.3066 -49.3002 -49.2986
   -48.9647 -48.9627 -48.9562 -48.9542 -48.9540 -48.9489 -48.9443 -48.9414
   -48.9243 -48.9218 -48.9173 -48.9162 -48.9151 -48.9139 -48.9133 -48.9112
   -48.9094 -48.9075 -48.9055 -48.9036  -5.8598  -5.5113  -4.9195  -4.1655
    -3.8316  -3.8176  -3.4839  -3.4814  -3.3192  -2.9139  -2.8769  -2.6677
    -2.6596  -2.4668  -2.4156  -2.3769  -2.3709  -2.0558  -2.0311  -1.8814
    -1.8746  -1.7200  -1.6904  -1.3229  -1.0719  -1.0500  -0.8857  -0.5057
    -0.3229  -0.2521  -0.1974  -0.1045   0.0152   0.2157   0.2297

     occupation numbers 
     1.0000   1.0000   1.0000   1.0000   1.0000   1.0000   1.0000   1.0000
     1.0000   1.0000   1.0000   1.0000   1.0000   1.0000   1.0000   1.0000
     1.0000   1.0000   1.0000   1.0000   1.0000   1.0000   1.0000   1.0000
     1.0000   1.0000   1.0000   1.0000   1.0000   1.0000   1.0000   1.0000
     1.0000   1.0000   1.0000   1.0000   1.0000   1.0000   1.0001   1.0470
     1.0526   0.7381   0.4592   0.2742   0.2499   0.0000   0.0000   0.0000
     0.0000   0.0000   0.0000   0.0000   0.0000   0.0000   0.0000   0.0000
     0.0000   0.0000   0.0000   0.0000   0.0000   0.0000   0.0000

          k = 0.0000 0.0891 0.0000 (186265 PWs)   bands (ev):

   -49.5781 -49.5761 -49.5702 -49.5681 -49.3082 -49.3066 -49.3002 -49.2986
   -48.9647 -48.9627 -48.9562 -48.9542 -48.9540 -48.9489 -48.9442 -48.9414
   -48.9243 -48.9218 -48.9174 -48.9162 -48.9151 -48.9139 -48.9133 -48.9111
   -48.9094 -48.9075 -48.9055 -48.9035  -5.8347  -5.4861  -4.8945  -4.2586
    -4.1255  -3.8944  -3.3668  -3.3296  -3.2713  -3.0189  -2.7038  -2.6228
    -2.5840  -2.4755  -2.4381  -2.4009  -2.3064  -2.0969  -2.0039  -1.8738
    -1.8632  -1.7483  -1.6473  -1.3561  -1.0879  -1.0568  -0.8010  -0.6267
    -0.2911  -0.2253  -0.2127  -0.0747   0.0228   0.0487   0.2397

     occupation numbers 
     1.0000   1.0000   1.0000   1.0000   1.0000   1.0000   1.0000   1.0000
     1.0000   1.0000   1.0000   1.0000   1.0000   1.0000   1.0000   1.0000
     1.0000   1.0000   1.0000   1.0000   1.0000   1.0000   1.0000   1.0000
     1.0000   1.0000   1.0000   1.0000   1.0000   1.0000   1.0000   1.0000
     1.0000   1.0000   1.0000   1.0000   1.0000   1.0000   1.0255   1.0760
     1.0810   0.7831   0.5814   0.3836   0.0740   0.0001   0.0000   0.0000
     0.0000   0.0000   0.0000   0.0000   0.0000   0.0000   0.0000   0.0000
     0.0000   0.0000   0.0000   0.0000   0.0000   0.0000   0.0000

          k = 0.0000 0.1782 0.0000 (186243 PWs)   bands (ev):

   -49.5781 -49.5761 -49.5702 -49.5681 -49.3082 -49.3066 -49.3002 -49.2986
   -48.9647 -48.9627 -48.9562 -48.9542 -48.9538 -48.9491 -48.9442 -48.9414
   -48.9243 -48.9218 -48.9176 -48.9162 -48.9152 -48.9139 -48.9133 -48.9108
   -48.9096 -48.9075 -48.9056 -48.9034  -5.7592  -5.4108  -4.8204  -4.6258
    -4.2678  -4.0568  -3.6591  -3.2276  -2.9224  -2.8778  -2.7031  -2.5607
    -2.4755  -2.3918  -2.3847  -2.2361  -2.2092  -2.1815  -1.9394  -1.8912
    -1.8825  -1.7937  -1.5427  -1.4404  -1.1592  -0.9695  -0.8318  -0.6743
    -0.5075  -0.2517  -0.1118   0.0024   0.0267   0.1356   0.3328

     occupation numbers 
     1.0000   1.0000   1.0000   1.0000   1.0000   1.0000   1.0000   1.0000
     1.0000   1.0000   1.0000   1.0000   1.0000   1.0000   1.0000   1.0000
     1.0000   1.0000   1.0000   1.0000   1.0000   1.0000   1.0000   1.0000
     1.0000   1.0000   1.0000   1.0000   1.0000   1.0000   1.0000   1.0000
     1.0000   1.0000   1.0000   1.0000   1.0000   1.0001   1.0258   1.0623
     0.7830   0.3399   0.3076   0.0121   0.0053   0.0021   0.0000   0.0000
     0.0000   0.0000   0.0000   0.0000   0.0000   0.0000   0.0000   0.0000
     0.0000   0.0000   0.0000   0.0000   0.0000   0.0000   0.0000

          k = 0.0000 0.2673 0.0000 (186330 PWs)   bands (ev):

   -49.5781 -49.5761 -49.5702 -49.5681 -49.3082 -49.3066 -49.3002 -49.2986
   -48.9647 -48.9627 -48.9562 -48.9542 -48.9536 -48.9494 -48.9442 -48.9415
   -48.9244 -48.9218 -48.9179 -48.9162 -48.9153 -48.9138 -48.9132 -48.9106
   -48.9098 -48.9075 -48.9056 -48.9032  -5.6334  -5.2858  -4.9515  -4.7145
    -4.5712  -4.0288  -3.8831  -3.2333  -3.0928  -2.6641  -2.4943  -2.4103
    -2.4087  -2.3104  -2.2683  -2.2519  -2.0899  -2.0295  -1.9831  -1.8360
    -1.8037  -1.7678  -1.5380  -1.3843  -1.3188  -1.0149  -0.9546  -0.7986
    -0.4849  -0.2101   0.0051   0.0581   0.1897   0.2389   0.3893

     occupation numbers 
     1.0000   1.0000   1.0000   1.0000   1.0000   1.0000   1.0000   1.0000
     1.0000   1.0000   1.0000   1.0000   1.0000   1.0000   1.0000   1.0000
     1.0000   1.0000   1.0000   1.0000   1.0000   1.0000   1.0000   1.0000
     1.0000   1.0000   1.0000   1.0000   1.0000   1.0000   1.0000   1.0000
     1.0000   1.0000   1.0000   1.0000   1.0000   1.0495   0.8726   0.4312
     0.4232   0.0808   0.0296   0.0190   0.0001   0.0000   0.0000   0.0000
     0.0000   0.0000   0.0000   0.0000   0.0000   0.0000   0.0000   0.0000
     0.0000   0.0000   0.0000   0.0000   0.0000   0.0000   0.0000

          k = 0.0000 0.3563 0.0000 (186318 PWs)   bands (ev):

   -49.5781 -49.5761 -49.5702 -49.5681 -49.3082 -49.3066 -49.3002 -49.2986
   -48.9646 -48.9627 -48.9562 -48.9542 -48.9534 -48.9496 -48.9441 -48.9415
   -48.9244 -48.9218 -48.9180 -48.9161 -48.9154 -48.9138 -48.9131 -48.9104
   -48.9099 -48.9075 -48.9056 -48.9032  -5.4575  -5.2336  -5.1052  -4.8842
    -4.5017  -4.2758  -3.7360  -3.4966  -2.9256  -2.7081  -2.5964  -2.4764
    -2.2300  -2.1813  -2.1688  -2.1192  -2.0706  -1.9852  -1.8394  -1.7927
    -1.7005  -1.6684  -1.5468  -1.4937  -1.2281  -1.2276  -1.0024  -0.9111
    -0.4221  -0.2516  -0.0006   0.2507   0.3198   0.4287   0.5179

     occupation numbers 
     1.0000   1.0000   1.0000   1.0000   1.0000   1.0000   1.0000   1.0000
     1.0000   1.0000   1.0000   1.0000   1.0000   1.0000   1.0000   1.0000
     1.0000   1.0000   1.0000   1.0000   1.0000   1.0000   1.0000   1.0000
     1.0000   1.0000   1.0000   1.0000   1.0000   1.0000   1.0000   1.0000
     1.0000   1.0000   1.0000   1.0000   1.0000   1.0234   1.0833   0.7880
     0.0101   0.0021   0.0013   0.0002   0.0000   0.0000   0.0000   0.0000
     0.0000   0.0000   0.0000   0.0000   0.0000   0.0000   0.0000   0.0000
     0.0000   0.0000   0.0000   0.0000   0.0000   0.0000   0.0000

          k = 0.0909 0.0121 0.0000 (186373 PWs)   bands (ev):

   -49.5780 -49.5760 -49.5703 -49.5683 -49.3080 -49.3065 -49.3004 -49.2988
   -48.9645 -48.9625 -48.9564 -48.9544 -48.9538 -48.9487 -48.9445 -48.9415
   -48.9242 -48.9217 -48.9171 -48.9164 -48.9150 -48.9141 -48.9131 -48.9110
   -48.9095 -48.9077 -48.9057 -48.9038  -5.8331  -5.4843  -4.8919  -4.1369
    -3.8573  -3.7351  -3.5121  -3.3981  -3.2859  -3.2030  -2.9228  -2.8844
    -2.8077  -2.4346  -2.3861  -2.3621  -2.1644  -2.0793  -1.9177  -1.8428
    -1.8198  -1.7080  -1.6564  -1.3988  -1.0992  -1.0217  -0.8508  -0.6738
    -0.2904  -0.2728  -0.2178  -0.0692   0.0057   0.0501   0.2635

     occupation numbers 
     1.0000   1.0000   1.0000   1.0000   1.0000   1.0000   1.0000   1.0000
     1.0000   1.0000   1.0000   1.0000   1.0000   1.0000   1.0000   1.0000
     1.0000   1.0000   1.0000   1.0000   1.0000   1.0000   1.0000   1.0000
     1.0000   1.0000   1.0000   1.0000   1.0000   1.0000   1.0000   1.0000
     1.0000   1.0000   1.0000   1.0000   1.0000   1.0000   1.0000   1.0001
     1.0017   0.5619   0.3140   0.2168   0.0011   0.0000   0.0000   0.0000
     0.0000   0.0000   0.0000   0.0000   0.0000   0.0000   0.0000   0.0000
     0.0000   0.0000   0.0000   0.0000   0.0000   0.0000   0.0000

          k = 0.0909 0.1012 0.0000 (186296 PWs)   bands (ev):

   -49.5780 -49.5760 -49.5703 -49.5683 -49.3080 -49.3065 -49.3004 -49.2988
   -48.9645 -48.9625 -48.9564 -48.9544 -48.9538 -48.9488 -48.9445 -48.9415
   -48.9242 -48.9217 -48.9173 -48.9164 -48.9150 -48.9141 -48.9131 -48.9109
   -48.9096 -48.9076 -48.9057 -48.9037  -5.8011  -5.4524  -4.8602  -4.2830
    -4.0936  -3.9198  -3.3317  -3.2708  -3.2547  -3.2421  -2.9256  -2.9161
    -2.6221  -2.4193  -2.3829  -2.3742  -2.0182  -1.9943  -1.8580  -1.8404
    -1.8051  -1.6267  -1.6005  -1.4632  -1.0955  -1.0186  -0.8661  -0.7533
    -0.3644  -0.2538  -0.1968  -0.1800  -0.0304   0.0921   0.2802

     occupation numbers 
     1.0000   1.0000   1.0000   1.0000   1.0000   1.0000   1.0000   1.0000
     1.0000   1.0000   1.0000   1.0000   1.0000   1.0000   1.0000   1.0000
     1.0000   1.0000   1.0000   1.0000   1.0000   1.0000   1.0000   1.0000
     1.0000   1.0000   1.0000   1.0000   1.0000   1.0000   1.0000   1.0000
     1.0000   1.0000   1.0000   1.0000   1.0000   1.0000   1.0000   1.0000
     1.0764   0.4789   0.2996   0.2630   0.0000   0.0000   0.0000   0.0000
     0.0000   0.0000   0.0000   0.0000   0.0000   0.0000   0.0000   0.0000
     0.0000   0.0000   0.0000   0.0000   0.0000   0.0000   0.0000

          k = 0.0909 0.1903 0.0000 (186330 PWs)   bands (ev):

   -49.5780 -49.5760 -49.5703 -49.5683 -49.3080 -49.3065 -49.3004 -49.2988
   -48.9645 -48.9625 -48.9564 -48.9544 -48.9536 -48.9490 -48.9444 -48.9416
   -48.9242 -48.9217 -48.9175 -48.9164 -48.9151 -48.9140 -48.9131 -48.9106
   -48.9098 -48.9076 -48.9057 -48.9036  -5.7187  -5.3702  -4.7801  -4.6466
    -4.2869  -4.0166  -3.6747  -3.2352  -3.1841  -2.9304  -2.9023  -2.7828
    -2.4753  -2.3484  -2.3447  -2.1980  -1.9710  -1.9108  -1.8449  -1.8215
    -1.7624  -1.6693  -1.5090  -1.4951  -1.2344  -0.9729  -0.9307  -0.6670
    -0.6154  -0.2116  -0.1949  -0.0577   0.0806   0.1852   0.3812

     occupation numbers 
     1.0000   1.0000   1.0000   1.0000   1.0000   1.0000   1.0000   1.0000
     1.0000   1.0000   1.0000   1.0000   1.0000   1.0000   1.0000   1.0000
     1.0000   1.0000   1.0000   1.0000   1.0000   1.0000   1.0000   1.0000
     1.0000   1.0000   1.0000   1.0000   1.0000   1.0000   1.0000   1.0000
     1.0000   1.0000   1.0000   1.0000   1.0000   1.0000   1.0001   1.0037
     0.7823   0.1713   0.1601   0.0037   0.0000   0.0000   0.0000   0.0000
     0.0000   0.0000   0.0000   0.0000   0.0000   0.0000   0.0000   0.0000
     0.0000   0.0000   0.0000   0.0000   0.0000   0.0000   0.0000

          k = 0.0909 0.2794 0.0000 (186389 PWs)   bands (ev):

   -49.5780 -49.5760 -49.5703 -49.5683 -49.3080 -49.3065 -49.3004 -49.2988
   -48.9645 -48.9625 -48.9564 -48.9544 -48.9534 -48.9493 -48.9444 -48.9416
   -48.9242 -48.9217 -48.9177 -48.9163 -48.9152 -48.9140 -48.9130 -48.9104
   -48.9100 -48.9076 -48.9057 -48.9034  -5.5860  -5.2387  -4.9655  -4.6840
    -4.5673  -4.0297  -3.8447  -3.2398  -3.1833  -3.0434  -2.8443  -2.4864
    -2.3193  -2.2776  -2.2229  -2.0860  -1.9422  -1.9420  -1.8925  -1.7695
    -1.6904  -1.6218  -1.5338  -1.3854  -1.3246  -1.0213  -0.9364  -0.9231
    -0.4346  -0.1768  -0.1156   0.1219   0.2476   0.2860   0.4323

     occupation numbers 
     1.0000   1.0000   1.0000   1.0000   1.0000   1.0000   1.0000   1.0000
     1.0000   1.0000   1.0000   1.0000   1.0000   1.0000   1.0000   1.0000
     1.0000   1.0000   1.0000   1.0000   1.0000   1.0000   1.0000   1.0000
     1.0000   1.0000   1.0000   1.0000   1.0000   1.0000   1.0000   1.0000
     1.0000   1.0000   1.0000   1.0000   1.0000   1.0000   1.0005   0.8366
     0.0976   0.0375   0.0082   0.0000   0.0000   0.0000   0.0000   0.0000
     0.0000   0.0000   0.0000   0.0000   0.0000   0.0000   0.0000   0.0000
     0.0000   0.0000   0.0000   0.0000   0.0000   0.0000   0.0000

          k = 0.0909 0.3685 0.0000 (186431 PWs)   bands (ev):

   -49.5780 -49.5760 -49.5703 -49.5683 -49.3080 -49.3065 -49.3004 -49.2988
   -48.9645 -48.9625 -48.9564 -48.9544 -48.9532 -48.9494 -48.9443 -48.9416
   -48.9242 -48.9217 -48.9178 -48.9163 -48.9153 -48.9140 -48.9129 -48.9103
   -48.9101 -48.9077 -48.9057 -48.9033  -5.4031  -5.2398  -5.0524  -4.8896
    -4.4489  -4.2796  -3.6828  -3.4971  -3.0887  -2.8697  -2.7451  -2.7043
    -2.3446  -2.1858  -2.1398  -2.0763  -2.0147  -1.9288  -1.8089  -1.7588
    -1.6177  -1.6070  -1.4579  -1.3623  -1.2064  -1.1813  -0.9804  -0.9251
    -0.3876  -0.2252  -0.0400   0.3030   0.3672   0.4861   0.4869

     occupation numbers 
     1.0000   1.0000   1.0000   1.0000   1.0000   1.0000   1.0000   1.0000
     1.0000   1.0000   1.0000   1.0000   1.0000   1.0000   1.0000   1.0000
     1.0000   1.0000   1.0000   1.0000   1.0000   1.0000   1.0000   1.0000
     1.0000   1.0000   1.0000   1.0000   1.0000   1.0000   1.0000   1.0000
     1.0000   1.0000   1.0000   1.0000   1.0000   1.0002   1.0102   1.0252
     0.1600   0.0024   0.0004   0.0000   0.0000   0.0000   0.0000   0.0000
     0.0000   0.0000   0.0000   0.0000   0.0000   0.0000   0.0000   0.0000
     0.0000   0.0000   0.0000   0.0000   0.0000   0.0000   0.0000

          k = 0.0909-0.3442 0.0000 (186485 PWs)   bands (ev):

   -49.5780 -49.5760 -49.5703 -49.5683 -49.3080 -49.3065 -49.3004 -49.2988
   -48.9645 -48.9625 -48.9564 -48.9544 -48.9532 -48.9494 -48.9443 -48.9417
   -48.9242 -48.9217 -48.9178 -48.9163 -48.9153 -48.9140 -48.9129 -48.9103
   -48.9101 -48.9077 -48.9057 -48.9033  -5.4581  -5.1754  -5.1014  -4.8245
    -4.4984  -4.2156  -3.7308  -3.4355  -2.9547  -2.9187  -2.6469  -2.6258
    -2.5709  -2.3269  -2.1577  -2.0660  -2.0445  -1.9367  -1.8951  -1.8038
    -1.7045  -1.6706  -1.4746  -1.3052  -1.2090  -1.1000  -0.9601  -0.8213
    -0.3921  -0.2113   0.0210   0.2607   0.3339   0.4353   0.5301

     occupation numbers 
     1.0000   1.0000   1.0000   1.0000   1.0000   1.0000   1.0000   1.0000
     1.0000   1.0000   1.0000   1.0000   1.0000   1.0000   1.0000   1.0000
     1.0000   1.0000   1.0000   1.0000   1.0000   1.0000   1.0000   1.0000
     1.0000   1.0000   1.0000   1.0000   1.0000   1.0000   1.0000   1.0000
     1.0000   1.0000   1.0000   1.0000   1.0000   1.0000   1.0613   1.0745
     1.0731   0.1138   0.0009   0.0000   0.0000   0.0000   0.0000   0.0000
     0.0000   0.0000   0.0000   0.0000   0.0000   0.0000   0.0000   0.0000
     0.0000   0.0000   0.0000   0.0000   0.0000   0.0000   0.0000

          k = 0.0909-0.2551 0.0000 (186443 PWs)   bands (ev):

   -49.5780 -49.5760 -49.5703 -49.5683 -49.3080 -49.3065 -49.3004 -49.2988
   -48.9645 -48.9625 -48.9564 -48.9544 -48.9534 -48.9492 -48.9443 -48.9416
   -48.9242 -48.9217 -48.9177 -48.9163 -48.9152 -48.9140 -48.9130 -48.9104
   -48.9100 -48.9076 -48.9057 -48.9034  -5.6272  -5.2788  -4.8829  -4.6983
    -4.5109  -3.9810  -3.8528  -3.1692  -3.0768  -2.8129  -2.7828  -2.5210
    -2.4488  -2.4345  -2.4280  -2.2484  -2.0666  -2.0539  -2.0463  -1.8037
    -1.7774  -1.7731  -1.5895  -1.3794  -1.1956  -0.9324  -0.9227  -0.6116
    -0.4735  -0.1797   0.0631   0.0844   0.1989   0.2616   0.4142

     occupation numbers 
     1.0000   1.0000   1.0000   1.0000   1.0000   1.0000   1.0000   1.0000
     1.0000   1.0000   1.0000   1.0000   1.0000   1.0000   1.0000   1.0000
     1.0000   1.0000   1.0000   1.0000   1.0000   1.0000   1.0000   1.0000
     1.0000   1.0000   1.0000   1.0000   1.0000   1.0000   1.0000   1.0000
     1.0000   1.0000   1.0000   1.0000   1.0000   1.0015   1.0037   0.9744
     0.6409   0.5615   0.5259   0.0173   0.0000   0.0000   0.0000   0.0000
     0.0000   0.0000   0.0000   0.0000   0.0000   0.0000   0.0000   0.0000
     0.0000   0.0000   0.0000   0.0000   0.0000   0.0000   0.0000

          k = 0.0909-0.1660 0.0000 (186362 PWs)   bands (ev):

   -49.5780 -49.5760 -49.5703 -49.5683 -49.3080 -49.3065 -49.3004 -49.2988
   -48.9645 -48.9625 -48.9564 -48.9544 -48.9536 -48.9490 -48.9444 -48.9416
   -48.9242 -48.9217 -48.9175 -48.9164 -48.9150 -48.9140 -48.9131 -48.9107
   -48.9098 -48.9076 -48.9057 -48.9035  -5.7461  -5.3972  -4.8055  -4.5501
    -4.1929  -4.0394  -3.5848  -3.2096  -2.9854  -2.9208  -2.8454  -2.6888
    -2.5893  -2.5826  -2.3684  -2.2775  -2.2144  -2.1658  -2.0752  -1.8684
    -1.8525  -1.6901  -1.5849  -1.5249  -1.1642  -0.9485  -0.7385  -0.6678
    -0.3915  -0.2265  -0.0964   0.0436   0.1452   0.1558   0.3496

     occupation numbers 
     1.0000   1.0000   1.0000   1.0000   1.0000   1.0000   1.0000   1.0000
     1.0000   1.0000   1.0000   1.0000   1.0000   1.0000   1.0000   1.0000
     1.0000   1.0000   1.0000   1.0000   1.0000   1.0000   1.0000   1.0000
     1.0000   1.0000   1.0000   1.0000   1.0000   1.0000   1.0000   1.0000
     1.0000   1.0000   1.0000   1.0000   1.0000   1.0000   1.0005   1.0336
     1.0826   1.0805   0.2404   0.0374   0.0063   0.0012   0.0000   0.0000
     0.0000   0.0000   0.0000   0.0000   0.0000   0.0000   0.0000   0.0000
     0.0000   0.0000   0.0000   0.0000   0.0000   0.0000   0.0000

          k = 0.0909-0.0769 0.0000 (186293 PWs)   bands (ev):

   -49.5780 -49.5760 -49.5703 -49.5683 -49.3080 -49.3065 -49.3004 -49.2988
   -48.9645 -48.9625 -48.9564 -48.9544 -48.9538 -48.9488 -48.9444 -48.9415
   -48.9242 -48.9217 -48.9172 -48.9164 -48.9150 -48.9141 -48.9131 -48.9109
   -48.9096 -48.9076 -48.9057 -48.9037  -5.8148  -5.4659  -4.8734  -4.1832
    -4.0951  -3.8123  -3.4033  -3.2941  -3.2030  -3.1172  -3.0526  -2.8071
    -2.5749  -2.4694  -2.4160  -2.3819  -2.2948  -2.1320  -1.9966  -1.8694
    -1.8245  -1.7303  -1.6274  -1.4351  -1.1532  -1.0336  -0.7839  -0.5972
    -0.2958  -0.2642  -0.2007  -0.0482   0.0749   0.1465   0.2671

     occupation numbers 
     1.0000   1.0000   1.0000   1.0000   1.0000   1.0000   1.0000   1.0000
     1.0000   1.0000   1.0000   1.0000   1.0000   1.0000   1.0000   1.0000
     1.0000   1.0000   1.0000   1.0000   1.0000   1.0000   1.0000   1.0000
     1.0000   1.0000   1.0000   1.0000   1.0000   1.0000   1.0000   1.0000
     1.0000   1.0000   1.0000   1.0000   1.0000   1.0000   1.0000   1.0018
     1.0762   0.7519   0.4614   0.2956   0.0568   0.0003   0.0000   0.0000
     0.0000   0.0000   0.0000   0.0000   0.0000   0.0000   0.0000   0.0000
     0.0000   0.0000   0.0000   0.0000   0.0000   0.0000   0.0000

          k = 0.1818 0.0243 0.0000 (186409 PWs)   bands (ev):

   -49.5775 -49.5755 -49.5708 -49.5688 -49.3076 -49.3060 -49.3008 -49.2992
   -48.9640 -48.9620 -48.9569 -48.9549 -48.9533 -48.9483 -48.9451 -48.9419
   -48.9237 -48.9212 -48.9169 -48.9167 -48.9146 -48.9145 -48.9126 -48.9106
   -48.9100 -48.9081 -48.9061 -48.9042  -5.7529  -5.4034  -4.8090  -4.0518
    -3.8332  -3.7020  -3.5897  -3.4854  -3.3641  -3.2632  -3.1828  -2.8863
    -2.7884  -2.6639  -2.4021  -2.3382  -2.2978  -2.1133  -1.9677  -1.7475
    -1.5547  -1.5289  -1.4992  -1.3827  -1.2837  -1.0306  -0.9373  -0.7468
    -0.5522  -0.3237  -0.1931  -0.1151   0.0365   0.1033   0.1546

     occupation numbers 
     1.0000   1.0000   1.0000   1.0000   1.0000   1.0000   1.0000   1.0000
     1.0000   1.0000   1.0000   1.0000   1.0000   1.0000   1.0000   1.0000
     1.0000   1.0000   1.0000   1.0000   1.0000   1.0000   1.0000   1.0000
     1.0000   1.0000   1.0000   1.0000   1.0000   1.0000   1.0000   1.0000
     1.0000   1.0000   1.0000   1.0000   1.0000   1.0000   1.0000   1.0001
     1.0032   1.0496   0.3898   0.1420   0.0610   0.0002   0.0000   0.0000
     0.0000   0.0000   0.0000   0.0000   0.0000   0.0000   0.0000   0.0000
     0.0000   0.0000   0.0000   0.0000   0.0000   0.0000   0.0000

          k = 0.1818 0.1134 0.0000 (186374 PWs)   bands (ev):

   -49.5775 -49.5755 -49.5708 -49.5688 -49.3076 -49.3060 -49.3008 -49.2992
   -48.9640 -48.9620 -48.9569 -48.9549 -48.9532 -48.9484 -48.9451 -48.9419
   -48.9237 -48.9212 -48.9169 -48.9168 -48.9145 -48.9145 -48.9127 -48.9104
   -48.9101 -48.9081 -48.9061 -48.9042  -5.7140  -5.3647  -4.7709  -4.2540
    -4.0033  -3.8888  -3.7367  -3.3945  -3.2888  -3.1633  -3.1170  -2.8088
    -2.7724  -2.5639  -2.3109  -2.2496  -2.1244  -2.0591  -1.7548  -1.7432
    -1.6981  -1.5624  -1.4887  -1.4345  -1.3528  -1.0092  -0.9191  -0.7804
    -0.6410  -0.2454  -0.1523  -0.0650   0.0051   0.0849   0.2054

     occupation numbers 
     1.0000   1.0000   1.0000   1.0000   1.0000   1.0000   1.0000   1.0000
     1.0000   1.0000   1.0000   1.0000   1.0000   1.0000   1.0000   1.0000
     1.0000   1.0000   1.0000   1.0000   1.0000   1.0000   1.0000   1.0000
     1.0000   1.0000   1.0000   1.0000   1.0000   1.0000   1.0000   1.0000
     1.0000   1.0000   1.0000   1.0000   1.0000   1.0000   1.0000   1.0017
     1.0050   1.0662   0.0816   0.0179   0.0002   0.0000   0.0000   0.0000
     0.0000   0.0000   0.0000   0.0000   0.0000   0.0000   0.0000   0.0000
     0.0000   0.0000   0.0000   0.0000   0.0000   0.0000   0.0000

          k = 0.1818 0.2025 0.0000 (186449 PWs)   bands (ev):

   -49.5775 -49.5755 -49.5708 -49.5688 -49.3076 -49.3060 -49.3008 -49.2992
   -48.9640 -48.9620 -48.9569 -48.9549 -48.9530 -48.9486 -48.9450 -48.9420
   -48.9237 -48.9212 -48.9170 -48.9168 -48.9146 -48.9145 -48.9126 -48.9103
   -48.9102 -48.9081 -48.9062 -48.9040  -5.6246  -5.2757  -4.6850  -4.6127
    -4.2504  -3.9198  -3.7230  -3.6315  -3.3767  -3.0799  -2.8783  -2.7828
    -2.6260  -2.3353  -2.2369  -2.1298  -2.0974  -2.0423  -1.8393  -1.7841
    -1.7302  -1.5165  -1.4193  -1.3821  -1.3120  -1.0533  -0.8309  -0.7399
    -0.4916  -0.4306  -0.1065   0.0660   0.1487   0.2052   0.3043

     occupation numbers 
     1.0000   1.0000   1.0000   1.0000   1.0000   1.0000   1.0000   1.0000
     1.0000   1.0000   1.0000   1.0000   1.0000   1.0000   1.0000   1.0000
     1.0000   1.0000   1.0000   1.0000   1.0000   1.0000   1.0000   1.0000
     1.0000   1.0000   1.0000   1.0000   1.0000   1.0000   1.0000   1.0000
     1.0000   1.0000   1.0000   1.0000   1.0000   1.0000   1.0001   1.0037
     1.0743   0.1343   0.0124   0.0003   0.0001   0.0000   0.0000   0.0000
     0.0000   0.0000   0.0000   0.0000   0.0000   0.0000   0.0000   0.0000
     0.0000   0.0000   0.0000   0.0000   0.0000   0.0000   0.0000

          k = 0.1818 0.2916 0.0000 (186554 PWs)   bands (ev):

   -49.5775 -49.5755 -49.5708 -49.5688 -49.3076 -49.3060 -49.3008 -49.2992
   -48.9640 -48.9620 -48.9569 -48.9549 -48.9528 -48.9488 -48.9449 -48.9420
   -48.9237 -48.9212 -48.9172 -48.9168 -48.9147 -48.9145 -48.9126 -48.9105
   -48.9100 -48.9081 -48.9062 -48.9038  -5.4848  -5.1377  -4.9251  -4.6136
    -4.4929  -3.9793  -3.7428  -3.6619  -3.3116  -3.1872  -2.9308  -2.7127
    -2.4734  -2.4156  -2.1756  -2.1684  -2.1113  -1.9505  -1.7924  -1.6839
    -1.6701  -1.5828  -1.2322  -1.1998  -1.1694  -1.1639  -0.8279  -0.7916
    -0.3603  -0.3222  -0.0798   0.1961   0.2524   0.3657   0.4089

     occupation numbers 
     1.0000   1.0000   1.0000   1.0000   1.0000   1.0000   1.0000   1.0000
     1.0000   1.0000   1.0000   1.0000   1.0000   1.0000   1.0000   1.0000
     1.0000   1.0000   1.0000   1.0000   1.0000   1.0000   1.0000   1.0000
     1.0000   1.0000   1.0000   1.0000   1.0000   1.0000   1.0000   1.0000
     1.0000   1.0000   1.0000   1.0000   1.0000   1.0000   1.0000   1.0213
     0.7727   0.4589   0.0017   0.0013   0.0001   0.0000   0.0000   0.0000
     0.0000   0.0000   0.0000   0.0000   0.0000   0.0000   0.0000   0.0000
     0.0000   0.0000   0.0000   0.0000   0.0000   0.0000   0.0000

          k = 0.1818 0.3806 0.0000 (186504 PWs)   bands (ev):

   -49.5775 -49.5755 -49.5708 -49.5688 -49.3076 -49.3060 -49.3008 -49.2992
   -48.9640 -48.9620 -48.9569 -48.9549 -48.9527 -48.9489 -48.9449 -48.9421
   -48.9237 -48.9212 -48.9174 -48.9168 -48.9148 -48.9144 -48.9125 -48.9106
   -48.9098 -48.9081 -48.9062 -48.9037  -5.2949  -5.1926  -4.9451  -4.8404
    -4.3410  -4.2265  -3.5727  -3.5543  -3.4360  -3.2010  -2.7936  -2.7522
    -2.6353  -2.6208  -2.4413  -2.0331  -2.0102  -1.8975  -1.7396  -1.7128
    -1.4873  -1.4654  -1.3573  -1.1471  -1.0704  -0.9549  -0.8930  -0.8596
    -0.2891  -0.1607  -0.1319   0.2716   0.4170   0.4685   0.5413

     occupation numbers 
     1.0000   1.0000   1.0000   1.0000   1.0000   1.0000   1.0000   1.0000
     1.0000   1.0000   1.0000   1.0000   1.0000   1.0000   1.0000   1.0000
     1.0000   1.0000   1.0000   1.0000   1.0000   1.0000   1.0000   1.0000
     1.0000   1.0000   1.0000   1.0000   1.0000   1.0000   1.0000   1.0000
     1.0000   1.0000   1.0000   1.0000   1.0000   1.0000   1.0027   1.0086
     1.0689   1.0770   0.5994   0.0000   0.0000   0.0000   0.0000   0.0000
     0.0000   0.0000   0.0000   0.0000   0.0000   0.0000   0.0000   0.0000
     0.0000   0.0000   0.0000   0.0000   0.0000   0.0000   0.0000

          k = 0.1818-0.3321 0.0000 (186497 PWs)   bands (ev):

   -49.5775 -49.5755 -49.5708 -49.5688 -49.3076 -49.3060 -49.3008 -49.2992
   -48.9640 -48.9620 -48.9569 -48.9549 -48.9527 -48.9489 -48.9449 -48.9421
   -48.9237 -48.9212 -48.9174 -48.9168 -48.9148 -48.9145 -48.9125 -48.9106
   -48.9098 -48.9081 -48.9062 -48.9037  -5.4049  -5.0757  -5.0307  -4.7108
    -4.4386  -4.0994  -3.6667  -3.4019  -3.3146  -3.0879  -3.0284  -2.8491
    -2.7641  -2.5211  -2.4018  -2.2192  -2.0699  -2.0021  -1.7032  -1.6127
    -1.6127  -1.5312  -1.4167  -1.2199  -1.1262  -0.8551  -0.8439  -0.7229
    -0.2980  -0.1051   0.0157   0.3321   0.3464   0.4137   0.5084

     occupation numbers 
     1.0000   1.0000   1.0000   1.0000   1.0000   1.0000   1.0000   1.0000
     1.0000   1.0000   1.0000   1.0000   1.0000   1.0000   1.0000   1.0000
     1.0000   1.0000   1.0000   1.0000   1.0000   1.0000   1.0000   1.0000
     1.0000   1.0000   1.0000   1.0000   1.0000   1.0000   1.0000   1.0000
     1.0000   1.0000   1.0000   1.0000   1.0000   1.0000   1.0000   1.0004
     1.0063   0.9746   0.3884   0.0073   0.0000   0.0000   0.0000   0.0000
     0.0000   0.0000   0.0000   0.0000   0.0000   0.0000   0.0000   0.0000
     0.0000   0.0000   0.0000   0.0000   0.0000   0.0000   0.0000

          k = 0.1818-0.2430 0.0000 (186494 PWs)   bands (ev):

   -49.5775 -49.5755 -49.5708 -49.5688 -49.3076 -49.3060 -49.3008 -49.2992
   -48.9640 -48.9620 -48.9569 -48.9549 -48.9529 -48.9487 -48.9449 -48.9421
   -48.9237 -48.9212 -48.9172 -48.9168 -48.9147 -48.9145 -48.9126 -48.9105
   -48.9100 -48.9081 -48.9062 -48.9038  -5.5673  -5.2178  -4.7596  -4.6306
    -4.3912  -3.8899  -3.7506  -3.3051  -3.2067  -3.0550  -2.9883  -2.9809
    -2.8449  -2.4213  -2.4124  -2.3173  -2.2033  -2.1648  -2.0149  -1.7312
    -1.6785  -1.4764  -1.3251  -1.3115  -1.3105  -0.8621  -0.8286  -0.4701
    -0.4019  -0.0863   0.0402   0.1375   0.2780   0.3521   0.4443

     occupation numbers 
     1.0000   1.0000   1.0000   1.0000   1.0000   1.0000   1.0000   1.0000
     1.0000   1.0000   1.0000   1.0000   1.0000   1.0000   1.0000   1.0000
     1.0000   1.0000   1.0000   1.0000   1.0000   1.0000   1.0000   1.0000
     1.0000   1.0000   1.0000   1.0000   1.0000   1.0000   1.0000   1.0000
     1.0000   1.0000   1.0000   1.0000   1.0000   1.0000   1.0000   1.0000
     1.0005   0.4897   0.4424   0.0935   0.0044   0.0011   0.0000   0.0000
     0.0000   0.0000   0.0000   0.0000   0.0000   0.0000   0.0000   0.0000
     0.0000   0.0000   0.0000   0.0000   0.0000   0.0000   0.0000

          k = 0.1818-0.1539 0.0000 (186399 PWs)   bands (ev):

   -49.5775 -49.5755 -49.5708 -49.5688 -49.3076 -49.3060 -49.3008 -49.2992
   -48.9640 -48.9620 -48.9569 -48.9549 -48.9531 -48.9485 -48.9450 -48.9420
   -48.9237 -48.9212 -48.9170 -48.9168 -48.9146 -48.9145 -48.9127 -48.9103
   -48.9102 -48.9081 -48.9062 -48.9040  -5.6795  -5.3297  -4.7355  -4.4192
    -4.0625  -3.9640  -3.4858  -3.4522  -3.1596  -3.1304  -2.9671  -2.9005
    -2.7124  -2.6595  -2.5609  -2.5325  -2.2795  -2.1353  -2.0058  -1.8336
    -1.7763  -1.4801  -1.4418  -1.3884  -1.1227  -0.9036  -0.8699  -0.5956
    -0.3388  -0.1364  -0.0470  -0.0123   0.1312   0.2457   0.2761

     occupation numbers 
     1.0000   1.0000   1.0000   1.0000   1.0000   1.0000   1.0000   1.0000
     1.0000   1.0000   1.0000   1.0000   1.0000   1.0000   1.0000   1.0000
     1.0000   1.0000   1.0000   1.0000   1.0000   1.0000   1.0000   1.0000
     1.0000   1.0000   1.0000   1.0000   1.0000   1.0000   1.0000   1.0000
     1.0000   1.0000   1.0000   1.0000   1.0000   1.0000   1.0000   1.0001
     1.0215   1.0526   1.0625   1.0078   0.0393   0.0004   0.0000   0.0000
     0.0000   0.0000   0.0000   0.0000   0.0000   0.0000   0.0000   0.0000
     0.0000   0.0000   0.0000   0.0000   0.0000   0.0000   0.0000

          k = 0.1818-0.0648 0.0000 (186337 PWs)   bands (ev):

   -49.5775 -49.5755 -49.5708 -49.5688 -49.3076 -49.3060 -49.3008 -49.2992
   -48.9640 -48.9620 -48.9569 -48.9549 -48.9532 -48.9483 -48.9450 -48.9420
   -48.9237 -48.9212 -48.9169 -48.9168 -48.9145 -48.9145 -48.9127 -48.9105
   -48.9101 -48.9081 -48.9062 -48.9041  -5.7414  -5.3917  -4.7971  -4.0659
    -3.9933  -3.6736  -3.6184  -3.3839  -3.2852  -3.2071  -3.0664  -3.0271
    -2.7325  -2.6870  -2.4978  -2.3735  -2.3261  -2.3239  -2.0042  -1.7268
    -1.6779  -1.5391  -1.4746  -1.4318  -1.1384  -0.9498  -0.8019  -0.7025
    -0.5802  -0.1742  -0.1417  -0.1065   0.0492   0.1706   0.2707

     occupation numbers 
     1.0000   1.0000   1.0000   1.0000   1.0000   1.0000   1.0000   1.0000
     1.0000   1.0000   1.0000   1.0000   1.0000   1.0000   1.0000   1.0000
     1.0000   1.0000   1.0000   1.0000   1.0000   1.0000   1.0000   1.0000
     1.0000   1.0000   1.0000   1.0000   1.0000   1.0000   1.0000   1.0000
     1.0000   1.0000   1.0000   1.0000   1.0000   1.0000   1.0000   1.0000
     1.0138   1.0347   0.8878   0.2604   0.1121   0.1072   0.0000   0.0000
     0.0000   0.0000   0.0000   0.0000   0.0000   0.0000   0.0000   0.0000
     0.0000   0.0000   0.0000   0.0000   0.0000   0.0000   0.0000

          k = 0.2727 0.0364 0.0000 (186443 PWs)   bands (ev):

   -49.5768 -49.5747 -49.5715 -49.5695 -49.3068 -49.3052 -49.3016 -49.3000
   -48.9632 -48.9612 -48.9577 -48.9557 -48.9524 -48.9476 -48.9460 -48.9426
   -48.9229 -48.9205 -48.9176 -48.9159 -48.9153 -48.9138 -48.9119 -48.9107
   -48.9099 -48.9088 -48.9068 -48.9049  -5.6192  -5.2687  -4.6714  -4.1522
    -3.9115  -3.8051  -3.7534  -3.4120  -3.3791  -3.2079  -3.0872  -3.0026
    -2.7928  -2.6926  -2.4587  -2.4407  -2.2899  -2.1788  -2.1514  -1.6992
    -1.6311  -1.5890  -1.5250  -1.3863  -1.3320  -0.9672  -0.8489  -0.7981
    -0.6718  -0.5748  -0.2861  -0.0331   0.0555   0.1581   0.2127

     occupation numbers 
     1.0000   1.0000   1.0000   1.0000   1.0000   1.0000   1.0000   1.0000
     1.0000   1.0000   1.0000   1.0000   1.0000   1.0000   1.0000   1.0000
     1.0000   1.0000   1.0000   1.0000   1.0000   1.0000   1.0000   1.0000
     1.0000   1.0000   1.0000   1.0000   1.0000   1.0000   1.0000   1.0000
     1.0000   1.0000   1.0000   1.0000   1.0000   1.0000   1.0000   1.0000
     1.0028   1.0314   0.6950   0.5957   0.0506   0.0019   0.0007   0.0000
     0.0000   0.0000   0.0000   0.0000   0.0000   0.0000   0.0000   0.0000
     0.0000   0.0000   0.0000   0.0000   0.0000   0.0000   0.0000

          k = 0.2727 0.1255 0.0000 (186536 PWs)   bands (ev):

   -49.5768 -49.5747 -49.5715 -49.5695 -49.3068 -49.3052 -49.3016 -49.3000
   -48.9632 -48.9612 -48.9577 -48.9557 -48.9523 -48.9477 -48.9460 -48.9426
   -48.9229 -48.9205 -48.9176 -48.9160 -48.9153 -48.9138 -48.9119 -48.9108
   -48.9097 -48.9088 -48.9069 -48.9049  -5.5734  -5.2232  -4.6268  -4.1812
    -4.1717  -3.8585  -3.8314  -3.8000  -3.2286  -3.1930  -3.0066  -2.9056
    -2.5596  -2.4686  -2.4468  -2.2934  -2.1422  -2.1004  -2.0496  -1.9292
    -1.8043  -1.6064  -1.5826  -1.3131  -1.2808  -1.1885  -0.8923  -0.7596
    -0.5196  -0.4650  -0.3035   0.0118   0.0492   0.1196   0.2711

     occupation numbers 
     1.0000   1.0000   1.0000   1.0000   1.0000   1.0000   1.0000   1.0000
     1.0000   1.0000   1.0000   1.0000   1.0000   1.0000   1.0000   1.0000
     1.0000   1.0000   1.0000   1.0000   1.0000   1.0000   1.0000   1.0000
     1.0000   1.0000   1.0000   1.0000   1.0000   1.0000   1.0000   1.0000
     1.0000   1.0000   1.0000   1.0000   1.0000   1.0000   1.0000   1.0000
     1.0608   0.7479   0.6299   0.0551   0.0005   0.0001   0.0000   0.0000
     0.0000   0.0000   0.0000   0.0000   0.0000   0.0000   0.0000   0.0000
     0.0000   0.0000   0.0000   0.0000   0.0000   0.0000   0.0000

          k = 0.2727 0.2146 0.0000 (186561 PWs)   bands (ev):

   -49.5768 -49.5747 -49.5715 -49.5695 -49.3068 -49.3052 -49.3016 -49.3000
   -48.9632 -48.9612 -48.9577 -48.9557 -48.9521 -48.9479 -48.9459 -48.9427
   -48.9229 -48.9205 -48.9176 -48.9163 -48.9152 -48.9139 -48.9119 -48.9110
   -48.9095 -48.9088 -48.9069 -48.9047  -5.4770  -5.1273  -4.5390  -4.5215
    -4.1606  -4.1589  -3.8082  -3.7683  -3.5293  -3.2007  -2.9173  -2.7644
    -2.5531  -2.4086  -2.4006  -2.2054  -2.1441  -2.0570  -1.9312  -1.8956
    -1.6571  -1.5990  -1.5484  -1.4377  -1.2045  -0.9686  -0.8242  -0.6705
    -0.6681  -0.3040  -0.1099   0.0623   0.1101   0.2588   0.3332

     occupation numbers 
     1.0000   1.0000   1.0000   1.0000   1.0000   1.0000   1.0000   1.0000
     1.0000   1.0000   1.0000   1.0000   1.0000   1.0000   1.0000   1.0000
     1.0000   1.0000   1.0000   1.0000   1.0000   1.0000   1.0000   1.0000
     1.0000   1.0000   1.0000   1.0000   1.0000   1.0000   1.0000   1.0000
     1.0000   1.0000   1.0000   1.0000   1.0000   1.0000   1.0000   1.0062
     1.0512   0.4228   0.3824   0.0047   0.0005   0.0000   0.0000   0.0000
     0.0000   0.0000   0.0000   0.0000   0.0000   0.0000   0.0000   0.0000
     0.0000   0.0000   0.0000   0.0000   0.0000   0.0000   0.0000

          k = 0.2727 0.3037 0.0000 (186567 PWs)   bands (ev):

   -49.5768 -49.5747 -49.5715 -49.5695 -49.3068 -49.3052 -49.3016 -49.3000
   -48.9632 -48.9612 -48.9577 -48.9557 -48.9519 -48.9481 -48.9459 -48.9428
   -48.9229 -48.9205 -48.9176 -48.9165 -48.9152 -48.9140 -48.9118 -48.9112
   -48.9093 -48.9088 -48.9069 -48.9045  -5.3299  -4.9831  -4.8305  -4.5030
    -4.3494  -4.0910  -3.8754  -3.7361  -3.5808  -3.1265  -3.0756  -2.9195
    -2.7564  -2.5743  -2.3398  -2.2821  -1.9726  -1.9585  -1.9307  -1.5818
    -1.5472  -1.5048  -1.4261  -1.2261  -1.0781  -1.0098  -0.6691  -0.6474
    -0.4865  -0.2586  -0.1487   0.0800   0.3226   0.3741   0.4442

     occupation numbers 
     1.0000   1.0000   1.0000   1.0000   1.0000   1.0000   1.0000   1.0000
     1.0000   1.0000   1.0000   1.0000   1.0000   1.0000   1.0000   1.0000
     1.0000   1.0000   1.0000   1.0000   1.0000   1.0000   1.0000   1.0000
     1.0000   1.0000   1.0000   1.0000   1.0000   1.0000   1.0000   1.0000
     1.0000   1.0000   1.0000   1.0000   1.0000   1.0000   1.0000   1.0000
     1.0077   1.0757   0.1464   0.0420   0.0000   0.0000   0.0000   0.0000
     0.0000   0.0000   0.0000   0.0000   0.0000   0.0000   0.0000   0.0000
     0.0000   0.0000   0.0000   0.0000   0.0000   0.0000   0.0000

          k = 0.2727 0.3928 0.0000 (186565 PWs)   bands (ev):

[...]
     atom   18 type  1   force =     0.00005255    0.00003405    0.00008885
     atom   19 type  1   force =    -0.00011964   -0.00015140    0.00005522
     atom   20 type  1   force =    -0.00002536    0.00003818   -0.00010282
     atom   21 type  1   force =    -0.00008390   -0.00025906    0.00000474
     atom   22 type  1   force =    -0.00010436    0.00029292   -0.00021920
     atom   23 type  1   force =     0.00008262   -0.00027998    0.00031465
     atom   24 type  1   force =     0.00007591    0.00024990    0.00004496
     atom   25 type  1   force =     0.00002238   -0.00003974    0.00014060
     atom   26 type  1   force =     0.00010878    0.00013937   -0.00001581
     atom   27 type  1   force =    -0.00003794   -0.00000119   -0.00014368
     atom   28 type  1   force =    -0.00014088   -0.00006047   -0.00000221
     The non-local contrib.  to forces
     atom    1 type  1   force =     0.00080948   -0.01189413    0.05947787
     atom    2 type  1   force =    -0.00084960    0.01189217   -0.05951314
     atom    3 type  1   force =    -0.00019721   -0.01397797   -0.03408712
     atom    4 type  1   force =     0.00132724    0.00271888   -0.00902876
     atom    5 type  1   force =    -0.00048185   -0.00253949   -0.00065968
     atom    6 type  1   force =     0.00075871    0.00024154    0.00418805
     atom    7 type  1   force =    -0.00088134   -0.00103806    0.00073544
     atom    8 type  1   force =     0.00034401    0.00185533   -0.00054171
     atom    9 type  1   force =    -0.00031784   -0.00183794    0.00058770
     atom   10 type  1   force =     0.00089191    0.00101927   -0.00068915
     atom   11 type  1   force =    -0.00074256   -0.00022938   -0.00417037
     atom   12 type  1   force =     0.00050423    0.00255971    0.00068718
     atom   13 type  1   force =    -0.00135024   -0.00268248    0.00898553
     atom   14 type  1   force =     0.00018868    0.01390459    0.03397848
     atom   15 type  1   force =     0.00080716   -0.01189414    0.05947786
     atom   16 type  1   force =    -0.00083467    0.01189112   -0.05951277
     atom   17 type  1   force =    -0.00020245   -0.01397683   -0.03408956
     atom   18 type  1   force =     0.00132703    0.00271243   -0.00903103
     atom   19 type  1   force =    -0.00048058   -0.00253659   -0.00066252
     atom   20 type  1   force =     0.00075414    0.00023978    0.00418640
     atom   21 type  1   force =    -0.00088255   -0.00103782    0.00073554
     atom   22 type  1   force =     0.00034393    0.00185590   -0.00053975
     atom   23 type  1   force =    -0.00031705   -0.00183805    0.00058849
     atom   24 type  1   force =     0.00089070    0.00101934   -0.00068940
     atom   25 type  1   force =    -0.00074141   -0.00022904   -0.00417028
     atom   26 type  1   force =     0.00050460    0.00256018    0.00068656
     atom   27 type  1   force =    -0.00135039   -0.00268347    0.00898493
     atom   28 type  1   force =     0.00018846    0.01390503    0.03397842
     The ionic contribution  to forces
     atom    1 type  1   force =    -0.00057682   -0.17289449   13.09184268
     atom    2 type  1   force =     0.00069028    0.17321127  -13.09415553
     atom    3 type  1   force =     0.00193739   -0.30114126  -11.95722852
     atom    4 type  1   force =    -0.00304169    0.15089207   -9.79078707
     atom    5 type  1   force =     0.00264423   -0.00320580   -7.53911387
     atom    6 type  1   force =    -0.00270600   -0.03698575   -5.27711365
     atom    7 type  1   force =     0.00274789    0.01655062   -3.36414401
     atom    8 type  1   force =    -0.00270407    0.01732772   -0.95974311
     atom    9 type  1   force =     0.00247915   -0.01707725    0.96036402
     atom   10 type  1   force =    -0.00280099   -0.01680837    3.36783874
     atom   11 type  1   force =     0.00268923    0.03678933    5.27676503
     atom   12 type  1   force =    -0.00280006    0.00306703    7.53824739
     atom   13 type  1   force =     0.00322408   -0.14986931    9.79162640
     atom   14 type  1   force =    -0.00180633    0.30016331   11.95559271
     atom   15 type  1   force =    -0.00061550   -0.17289530   13.09184347
     atom   16 type  1   force =     0.00092420    0.17320710  -13.09415488
     atom   17 type  1   force =     0.00183988   -0.30111772  -11.95723464
     atom   18 type  1   force =    -0.00305342    0.15078781   -9.79080073
     atom   19 type  1   force =     0.00267548   -0.00314862   -7.53910430
     atom   20 type  1   force =    -0.00278165   -0.03701099   -5.27711237
     atom   21 type  1   force =     0.00273579    0.01655070   -3.36413963
     atom   22 type  1   force =    -0.00270943    0.01733906   -0.95975117
     atom   23 type  1   force =     0.00249551   -0.01707692    0.96037605
     atom   24 type  1   force =    -0.00281155   -0.01680879    3.36784653
     atom   25 type  1   force =     0.00270949    0.03679848    5.27676199
     atom   26 type  1   force =    -0.00279447    0.00307236    7.53825725
     atom   27 type  1   force =     0.00322263   -0.14988312    9.79161974
     atom   28 type  1   force =    -0.00181323    0.30016682   11.95560147
     The local contribution  to forces
     atom    1 type  1   force =     0.00018403    0.15745303  -13.14423980
     atom    2 type  1   force =    -0.00024265   -0.15774993   13.14673200
     atom    3 type  1   force =    -0.00135648    0.27874840   11.93282261
     atom    4 type  1   force =     0.00195413   -0.14002606    9.72807897
     atom    5 type  1   force =    -0.00215671    0.00653959    7.50659622
     atom    6 type  1   force =     0.00183084    0.03306950    5.24168616
     atom    7 type  1   force =    -0.00184534   -0.01395696    3.34404788
     atom    8 type  1   force =     0.00212381   -0.01880034    0.95585933
     atom    9 type  1   force =    -0.00194809    0.01854713   -0.95611264
     atom   10 type  1   force =     0.00188125    0.01422298   -3.34739704
     atom   11 type  1   force =    -0.00183161   -0.03289184   -5.24099016
     atom   12 type  1   force =     0.00227309   -0.00643224   -7.50537059
     atom   13 type  1   force =    -0.00209443    0.13900176   -9.72855982
     atom   14 type  1   force =     0.00124668   -0.27768341  -11.93077830
     atom   15 type  1   force =     0.00022263    0.15745377  -13.14424010
     atom   16 type  1   force =    -0.00047732   -0.15774467   13.14672872
     atom   17 type  1   force =    -0.00126148    0.27872431   11.93283074
     atom   18 type  1   force =     0.00196442   -0.13992168    9.72809312
     atom   19 type  1   force =    -0.00218575    0.00648225    7.50658601
     atom   20 type  1   force =     0.00190840    0.03309475    5.24168528
     atom   21 type  1   force =    -0.00183233   -0.01395719    3.34404313
     atom   22 type  1   force =     0.00212861   -0.01881173    0.95586760
     atom   23 type  1   force =    -0.00196445    0.01854714   -0.95612506
     atom   24 type  1   force =     0.00189267    0.01422315   -3.34740514
     atom   25 type  1   force =    -0.00185218   -0.03290086   -5.24098745
     atom   26 type  1   force =     0.00226753   -0.00643789   -7.50538051
     atom   27 type  1   force =    -0.00209322    0.13901576   -9.72855281
     atom   28 type  1   force =     0.00125290   -0.27768733  -11.93078736
     The core correction contribution to forces
     atom    1 type  1   force =     0.00000000    0.00000000    0.00000000
     atom    2 type  1   force =     0.00000000    0.00000000    0.00000000
     atom    3 type  1   force =     0.00000000    0.00000000    0.00000000
     atom    4 type  1   force =     0.00000000    0.00000000    0.00000000
     atom    5 type  1   force =     0.00000000    0.00000000    0.00000000
     atom    6 type  1   force =     0.00000000    0.00000000    0.00000000
     atom    7 type  1   force =     0.00000000    0.00000000    0.00000000
     atom    8 type  1   force =     0.00000000    0.00000000    0.00000000
     atom    9 type  1   force =     0.00000000    0.00000000    0.00000000
     atom   10 type  1   force =     0.00000000    0.00000000    0.00000000
     atom   11 type  1   force =     0.00000000    0.00000000    0.00000000
     atom   12 type  1   force =     0.00000000    0.00000000    0.00000000
     atom   13 type  1   force =     0.00000000    0.00000000    0.00000000
     atom   14 type  1   force =     0.00000000    0.00000000    0.00000000
     atom   15 type  1   force =     0.00000000    0.00000000    0.00000000
     atom   16 type  1   force =     0.00000000    0.00000000    0.00000000
     atom   17 type  1   force =     0.00000000    0.00000000    0.00000000
     atom   18 type  1   force =     0.00000000    0.00000000    0.00000000
     atom   19 type  1   force =     0.00000000    0.00000000    0.00000000
     atom   20 type  1   force =     0.00000000    0.00000000    0.00000000
     atom   21 type  1   force =     0.00000000    0.00000000    0.00000000
     atom   22 type  1   force =     0.00000000    0.00000000    0.00000000
     atom   23 type  1   force =     0.00000000    0.00000000    0.00000000
     atom   24 type  1   force =     0.00000000    0.00000000    0.00000000
     atom   25 type  1   force =     0.00000000    0.00000000    0.00000000
     atom   26 type  1   force =     0.00000000    0.00000000    0.00000000
     atom   27 type  1   force =     0.00000000    0.00000000    0.00000000
     atom   28 type  1   force =     0.00000000    0.00000000    0.00000000
     The Hubbard contrib.    to forces
     atom    1 type  1   force =     0.00000000    0.00000000    0.00000000
     atom    2 type  1   force =     0.00000000    0.00000000    0.00000000
     atom    3 type  1   force =     0.00000000    0.00000000    0.00000000
     atom    4 type  1   force =     0.00000000    0.00000000    0.00000000
     atom    5 type  1   force =     0.00000000    0.00000000    0.00000000
     atom    6 type  1   force =     0.00000000    0.00000000    0.00000000
     atom    7 type  1   force =     0.00000000    0.00000000    0.00000000
     atom    8 type  1   force =     0.00000000    0.00000000    0.00000000
     atom    9 type  1   force =     0.00000000    0.00000000    0.00000000
     atom   10 type  1   force =     0.00000000    0.00000000    0.00000000
     atom   11 type  1   force =     0.00000000    0.00000000    0.00000000
     atom   12 type  1   force =     0.00000000    0.00000000    0.00000000
     atom   13 type  1   force =     0.00000000    0.00000000    0.00000000
     atom   14 type  1   force =     0.00000000    0.00000000    0.00000000
     atom   15 type  1   force =     0.00000000    0.00000000    0.00000000
     atom   16 type  1   force =     0.00000000    0.00000000    0.00000000
     atom   17 type  1   force =     0.00000000    0.00000000    0.00000000
     atom   18 type  1   force =     0.00000000    0.00000000    0.00000000
     atom   19 type  1   force =     0.00000000    0.00000000    0.00000000
     atom   20 type  1   force =     0.00000000    0.00000000    0.00000000
     atom   21 type  1   force =     0.00000000    0.00000000    0.00000000
     atom   22 type  1   force =     0.00000000    0.00000000    0.00000000
     atom   23 type  1   force =     0.00000000    0.00000000    0.00000000
     atom   24 type  1   force =     0.00000000    0.00000000    0.00000000
     atom   25 type  1   force =     0.00000000    0.00000000    0.00000000
     atom   26 type  1   force =     0.00000000    0.00000000    0.00000000
     atom   27 type  1   force =     0.00000000    0.00000000    0.00000000
     atom   28 type  1   force =     0.00000000    0.00000000    0.00000000
     The SCF correction term to forces
     atom    1 type  1   force =     0.00000003   -0.00000015   -0.00000067
     atom    2 type  1   force =    -0.00000002    0.00000018    0.00000358
     atom    3 type  1   force =    -0.00000019    0.00000005    0.00000326
     atom    4 type  1   force =    -0.00000075    0.00000014   -0.00000084
     atom    5 type  1   force =     0.00000079   -0.00000026    0.00000021
     atom    6 type  1   force =    -0.00000006   -0.00000009    0.00000061
     atom    7 type  1   force =    -0.00000005    0.00000004    0.00000059
     atom    8 type  1   force =     0.00000007   -0.00000004    0.00000096
     atom    9 type  1   force =    -0.00000006    0.00000007    0.00000101
     atom   10 type  1   force =     0.00000010   -0.00000001    0.00000123
     atom   11 type  1   force =     0.00000004    0.00000004    0.00000104
     atom   12 type  1   force =    -0.00000075    0.00000034    0.00000102
     atom   13 type  1   force =     0.00000076   -0.00000015    0.00000144
     atom   14 type  1   force =     0.00000017   -0.00000010   -0.00000067
     atom   15 type  1   force =     0.00000003   -0.00000016   -0.00000068
     atom   16 type  1   force =     0.00000001    0.00000021    0.00000367
     atom   17 type  1   force =    -0.00000018    0.00000005    0.00000325
     atom   18 type  1   force =    -0.00000075    0.00000014   -0.00000082
     atom   19 type  1   force =     0.00000080   -0.00000026    0.00000021
     atom   20 type  1   force =    -0.00000006   -0.00000009    0.00000062
     atom   21 type  1   force =    -0.00000005    0.00000004    0.00000058
     atom   22 type  1   force =     0.00000007   -0.00000004    0.00000096
     atom   23 type  1   force =    -0.00000006    0.00000007    0.00000100
     atom   24 type  1   force =     0.00000010   -0.00000001    0.00000124
     atom   25 type  1   force =     0.00000004    0.00000003    0.00000105
     atom   26 type  1   force =    -0.00000075    0.00000033    0.00000102
     atom   27 type  1   force =     0.00000075   -0.00000015    0.00000144
     atom   28 type  1   force =     0.00000017   -0.00000010   -0.00000069

     Total force =     0.001211     Total SCF correction =     0.000009
     Energy error            =      6.4E-06 Ry
     Gradient error          =      3.1E-04 Ry/Bohr

     bfgs converged in  33 scf cycles and  32 bfgs steps
     (criteria: energy <  1.0E-05 Ry, force <  3.9E-04 Ry/Bohr)

     End of BFGS Geometry Optimization

     Final energy             =    -421.0401019642 Ry

     File ./Li/Lithium.bfgs deleted, as requested
Begin final coordinates

ATOMIC_POSITIONS (angstrom)
Li               0.2590169354       -0.1873156288       31.7357994277
Li              -0.2614408318        4.9589793051       20.0577781155
Li               0.7419173131        2.1469906144       20.7917014369
Li               1.0634036602        7.0174961336       21.7842039376
Li               1.7196138002        4.2161448857       22.6257176091
Li               0.0170513803        1.6680907722       23.6485305493
Li              -0.1196675958        6.3232413129       24.4474959219
Li               1.0793867549        3.7666535913       25.4764300489
Li               1.8988883759        1.0029225467       26.3115006837
Li               2.1035224117        5.8673235254       27.3426806290
Li              -0.0149195298        3.1021006577       28.1409989004
Li               1.2569587397        0.5544492572       29.1646892930
Li               0.9169990036        5.1735825703       30.0088232432
Li               2.2306662891        2.6244238652       31.0015247594
Li               3.2339708113       -0.1873134053       31.7357973713
Li               2.7133620093        4.9589762529       20.0577915726
Li               3.7169117184        2.1469928768       20.7917093346
Li               4.0383500162        7.0175419659       21.7842174742
Li               4.6945144360        4.2161215847       22.6257518324
Li               2.9920055067        1.6681075291       23.6485424408
Li               2.8552658260        6.3232396091       24.4474979515
Li               4.0543252166        3.7666476052       25.4764100223
Li               4.8738134348        1.0029197402       26.3114992468
Li               5.0784569900        5.8673225889       27.3426860251
Li               2.9600052231        3.1020967403       28.1409982661
Li               4.2318883969        0.5544528512       29.1646992251
Li               3.8919313180        5.1735882500       30.0088243778
Li               5.2056050152        2.6244294196       31.0015316825
End final coordinates



     Writing all to output data dir ./Li/Lithium.save/ :
     XML data file
     init_run     :     14.66s CPU     22.06s WALL (       1 calls)
     electrons    :  12935.69s CPU  16986.74s WALL (      33 calls)
     update_pot   :      2.10s CPU      2.65s WALL (      32 calls)
     forces       :    223.65s CPU    244.24s WALL (      33 calls)

     Called by init_run:
     wfcinit      :      2.43s CPU      3.31s WALL (       1 calls)
     wfcinit:wfcr :      2.32s CPU      3.20s WALL (      25 calls)
     potinit      :      0.88s CPU      0.96s WALL (       1 calls)
     hinit0       :      6.38s CPU     12.65s WALL (       1 calls)

     Called by electrons:
     c_bands      :  10599.19s CPU  14059.72s WALL (     638 calls)
     sum_band     :    674.88s CPU    957.48s WALL (     638 calls)
     v_of_rho     :     30.15s CPU     36.31s WALL (     639 calls)
     v_h          :      2.77s CPU      3.43s WALL (     639 calls)
     v_xc         :     27.37s CPU     32.86s WALL (     639 calls)
     newd         :     14.86s CPU     17.99s WALL (     639 calls)
     PAW_pot      :      5.10s CPU      7.09s WALL (     671 calls)
     mix_rho      :     88.44s CPU    114.43s WALL (     638 calls)

     Called by c_bands:
     init_us_2    :     56.07s CPU     62.08s WALL (   33550 calls)
     cegterg      :   9958.05s CPU  12457.16s WALL (   17680 calls)

     Called by sum_band:
     sum_band:wei :      1.31s CPU      1.56s WALL (     638 calls)
     sum_band:loo :    655.41s CPU    934.71s WALL (     638 calls)
     sum_band:buf :      6.62s CPU      7.36s WALL (   15950 calls)
     sum_band:ini :     24.37s CPU     25.85s WALL (   15950 calls)
     sum_band:cal :     82.17s CPU    101.31s WALL (   16750 calls)
     sum_band:bec :      1.61s CPU      1.81s WALL (   16750 calls)
     addusdens    :     13.83s CPU     14.49s WALL (     638 calls)
                                        0.00s GPU  (     638 calls)
     addusd:skk   :      2.76s CPU      2.82s WALL (     638 calls)
                                        0.00s GPU  (     638 calls)

     Called by *egterg:
     cdiaghg      :   2867.59s CPU   2973.75s WALL (  223365 calls)
     cegterg:over :    572.95s CPU    647.53s WALL (  207473 calls)
     cegterg:upda :    409.86s CPU    428.97s WALL (  207473 calls)
     cegterg:last :    102.42s CPU    104.35s WALL (   22571 calls)
     h_psi        :   5406.36s CPU   7646.16s WALL (  225178 calls)
     s_psi        :    320.07s CPU    333.19s WALL (  225178 calls)
     g_psi        :      5.72s CPU      6.11s WALL (  207473 calls)

     Called by h_psi:
     h_psi:calbec :    487.05s CPU    613.83s WALL (  225178 calls)
     vloc_psi     :   4555.43s CPU   6636.83s WALL (  225178 calls)
                                        0.00s GPU  (  225178 calls)
     add_vuspsi   :    341.34s CPU    370.39s WALL (  225178 calls)

     General routines
     calbec       :    583.20s CPU    731.01s WALL (  245228 calls)
     fft          :     29.24s CPU     42.71s WALL (    8371 calls)
     ffts         :     67.15s CPU     87.64s WALL (   71756 calls)
     fftw         :   4920.01s CPU   7190.90s WALL ( 9263942 calls)
     interpolate  :      3.36s CPU      4.04s WALL (     639 calls)

     Parallel routines

     PAW routines
     PAW_pot      :      5.10s CPU      7.09s WALL (     671 calls)

     Environ routines

     PWSCF        :      3h41m CPU      4h50m WALL


   This run was terminated on:  16:50:17   3Jan2025            

=------------------------------------------------------------------------------=
   JOB DONE.
=------------------------------------------------------------------------------=
