
     Program PWSCF v.7.4 starts on  2Jan2025 at 10:45:26 

     This program is part of the open-source Quantum ESPRESSO suite
     for quantum simulation of materials; please cite
         "P. Giannozzi et al., J. Phys.:Condens. Matter 21 395502 (2009);
         "P. Giannozzi et al., J. Phys.:Condens. Matter 29 465901 (2017);
         "P. Giannozzi et al., J. Chem. Phys. 152 154105 (2020);
          URL http://www.quantum-espresso.org", 
     in publications or presentations arising from this work. More details at
     http://www.quantum-espresso.org/quote

     Parallel version (MPI & OpenMP), running on     384 processor cores
     Number of MPI processes:               384
     Threads/MPI process:                     1

     MPI processes distributed on     3 nodes
     230370 MiB available memory on the printing compute node when the environment starts

     Reading input from espresso.pwi
Warning: card &CELL ignored
Warning: card    PRESS_CONV_THR   = 0.1 ignored
Warning: card    CELL_DOFREE      = 'ALL' ignored
Warning: card / ignored
Warning: card &FCP ignored
Warning: card / ignored
Warning: card &RISM ignored
Warning: card / ignored

     Current dimensions of program PWSCF are:
     Max number of different atomic species (ntypx) = 10
     Max number of k-points (npk) =  40000
     Max angular momentum in pseudopotentials (lmaxx) =  4

     IMPORTANT: XC functional enforced from input :
     Exchange-correlation= PBE
                           (   1   4   3   4   0   0   0)
     Any further DFT definition will be discarded
     Please, verify this is what you really want


     Reading input from environ.in:
     * using ionic solvent mode
     * setting boundary derivatives method to SSCS default
     * setting electrolyte-boundary derivatives method to SSCS default

Environ Warning (1001): card EOF ignored

     

     K-points division:     npool     =       2
     R & G space division:  proc/nbgrp/npool/nimage =     192
     Subspace diagonalization in iterative solution of the eigenvalue problem:
     a serial algorithm will be used


     Parallelization info
     --------------------
     sticks:   dense  smooth     PW     G-vecs:    dense   smooth      PW
     Min          68      27      7                36508     9229    1253
     Max          69      28      8                36563     9258    1292
     Sum       13133    5269   1401              7013397  1773951  244485

     Using Slab Decomposition



     bravais-lattice index     =            8
     lattice parameter (alat)  =      11.2436  a.u.
     unit-cell volume          =   18353.5537 (a.u.)^3
     number of atoms/cell      =           24
     number of atomic types    =            1
     number of electrons       =        72.00
     number of Kohn-Sham states=           54
     kinetic-energy cutoff     =      80.0000  Ry
     charge density cutoff     =     800.0000  Ry
     scf convergence threshold =      1.0E-06
     mixing beta               =       0.2000
     number of iterations used =            8  local-TF  mixing
     energy convergence thresh.=      1.0E-05
     force convergence thresh. =      3.9E-04
     Exchange-correlation= PBE
                           (   1   4   3   4   0   0   0)
     nstep                     =          999


     ================================================================================

                                  Environ Setup Summary

     ================================================================================

     Please cite

          O. Andreussi, I. Dabo and N. Marzari, J. Chem. Phys. 136, 064102 (2012)
          F. Nattino, M. Truscott, N. Marzari, and O. Andreussi, J. Chem. Phys. 150, 041722 (2019)

     in publications or presentations arising from this work.

     ================================================================================

     Parameters
     ==========

     compensation onset threshold      =               0.1000E+00
     static permittivity               =                    89.90
     surface tension in input (dyn/cm) =                    37.30
     surface tension in internal units =               0.4792E-04

     Solvent Boundary
     ================

     solvent mode                      =                    ionic
     derivatives method                =                   lowmem
     electrolyte derivatives method    =                   lowmem
     numerical core for derivatives    =                      fft
     switching function adopted        =                     SCCS
     density limit for vacuum region   =               0.5000E-02
     density limit for bulk solvent    =               0.1000E-03
     soft-sphere radius mode           =                    bondi
     soft-sphere softness              =                     0.50
     alpha                             =                     1.32

     Electrostatic Setup
     ===================

     electrostatic problem to solve    =                    modpb
     numerical solver adopted          =                   newton
     type of auxiliary density adopted =                     none
     numerical core for poisson        =                      fft
     adopting a nested solver scheme
     inner solver                      =                       cg
     inner core                        =                      fft
     type of pbc corrections           =                parabolic
     numerical core for corrections    =                      1da

     ================================================================================


     >>>>> Grand-Canonical SCF is activated <<<<<
     Initial Total Charge  =     0.000000 e
     Target Fermi Energy   =    -2.904000 eV
     Thr. of Fermi Energy  =     0.001000 eV
     Wave-shift of Kerker  =     0.400000 bohr^-1
     Wave-shift of Hartree =     1.500000 bohr^-1
     Mixing Rate of Fermi  =     0.050000

     celldm(1)=  11.243615  celldm(2)=   1.632993  celldm(3)=   7.907113
     celldm(4)=   0.000000  celldm(5)=   0.000000  celldm(6)=   0.000000

     crystal axes: (cart. coord. in units of alat)
               a(1) = (   1.000000   0.000000   0.000000 )  
               a(2) = (   0.000000   1.632993   0.000000 )  
               a(3) = (   0.000000   0.000000   7.907113 )  

     reciprocal axes: (cart. coord. in units 2 pi/alat)
               b(1) = (  1.000000  0.000000  0.000000 )  
               b(2) = (  0.000000  0.612372  0.000000 )  
               b(3) = (  0.000000  0.000000  0.126468 )  


     PseudoPot. # 1 for Li read from file:
     /work/e89/e89/ba3g18/Repos/Pseudopotentials/Pslibrary/Li.pbe-sl-kjpaw_psl.1.0.0.UPF
     MD5 check sum: 3f4d2cafebb47c6c3aa8ed472e6f074d
     Pseudo is Projector augmented-wave, Zval =  3.0
     Generated using 'atomic' code by A. Dal Corso  v.7.4
     Shape of augmentation charge: PSQ
     Using radial grid of 1017 points,  4 beta functions with: 
                l(1) =   0
                l(2) =   0
                l(3) =   1
                l(4) =   1
     Q(r) pseudized with 0 coefficients 


     atomic species   valence    mass     pseudopotential
     Li                3.00     6.94000     Li( 1.00)

      2 Sym. Ops. (no inversion) found


                                    s                        frac. trans.

      isym =  1     identity                                     

 cryst.   s( 1) = (     1          0          0      )
                  (     0          1          0      )
                  (     0          0          1      )

 cart.    s( 1) = (  1.0000000  0.0000000  0.0000000 )
                  (  0.0000000  1.0000000  0.0000000 )
                  (  0.0000000  0.0000000  1.0000000 )


      isym =  2     inv. 180 deg rotation - cart. axis [0,1,0]   

 cryst.   s( 2) = (     1          0          0      )
                  (     0         -1          0      )
                  (     0          0          1      )

 cart.    s( 2) = (  1.0000000  0.0000000  0.0000000 )
                  (  0.0000000 -1.0000000  0.0000000 )
                  (  0.0000000  0.0000000  1.0000000 )


     point group C_s (m)    
     there are  2 classes
     the character table:

       E     s    
A'     1.00  1.00
A''    1.00 -1.00

     the symmetry operations in each class and the name of the first element:

     E        1
          identity                                               
     s        2
          inv. 180 deg rotation - cart. axis [0,1,0]             

   Cartesian axes

     site n.     atom                  positions (alat units)
         1        Li     tau(   1) = (   0.5237414   0.8164966   4.5569018  )
         2        Li     tau(   2) = (   0.1429479   0.4082007   3.3502763  )
         3        Li     tau(   3) = (   0.3363564   0.8164966   3.6206637  )
         4        Li     tau(   4) = (   0.5238298   0.4082942   3.8172566  )
         5        Li     tau(   5) = (   0.1428529   0.8164966   4.0897289  )
         6        Li     tau(   6) = (   0.3302651   0.4082554   4.2865333  )
         7        Li     tau(   7) = (   0.5237542   1.6329931   4.5568809  )
         8        Li     tau(   8) = (   0.1429479   1.2247925   3.3502763  )
         9        Li     tau(   9) = (   0.3364002   1.6329931   3.6204693  )
        10        Li     tau(  10) = (   0.5238298   1.2246991   3.8172566  )
        11        Li     tau(  11) = (   0.1428625   1.6329931   4.0898723  )
        12        Li     tau(  12) = (   0.3302651   1.2247378   4.2865333  )
        13        Li     tau(  13) = (   1.0236463   0.8164966   4.5568908  )
        14        Li     tau(  14) = (   0.6429927   0.4081914   3.3502743  )
        15        Li     tau(  15) = (   0.8363757   0.8164966   3.6206497  )
        16        Li     tau(  16) = (   1.0238407   0.4083023   3.8172659  )
        17        Li     tau(  17) = (   0.6428349   0.8164966   4.0897445  )
        18        Li     tau(  18) = (   0.8303328   0.4082636   4.2865604  )
        19        Li     tau(  19) = (   1.0236415   1.6329931   4.5568741  )
        20        Li     tau(  20) = (   0.6429927   1.2248019   3.3502743  )
        21        Li     tau(  21) = (   0.8363058   1.6329931   3.6204710  )
        22        Li     tau(  22) = (   1.0238407   1.2246909   3.8172659  )
        23        Li     tau(  23) = (   0.6428107   1.6329931   4.0898374  )
        24        Li     tau(  24) = (   0.8303328   1.2247297   4.2865604  )

   Crystallographic axes

     site n.     atom                  positions (cryst. coord.)
         1        Li     tau(   1) = (  0.5237414  0.5000001  0.5763041  )
         2        Li     tau(   2) = (  0.1429479  0.2499709  0.4237041  )
         3        Li     tau(   3) = (  0.3363564  0.5000001  0.4578996  )
         4        Li     tau(   4) = (  0.5238298  0.2500281  0.4827624  )
         5        Li     tau(   5) = (  0.1428529  0.5000001  0.5172215  )
         6        Li     tau(   6) = (  0.3302651  0.2500044  0.5421110  )
         7        Li     tau(   7) = (  0.5237542  1.0000001  0.5763015  )
         8        Li     tau(   8) = (  0.1429479  0.7500292  0.4237041  )
         9        Li     tau(   9) = (  0.3364002  1.0000001  0.4578750  )
        10        Li     tau(  10) = (  0.5238298  0.7499720  0.4827624  )
        11        Li     tau(  11) = (  0.1428625  1.0000001  0.5172396  )
        12        Li     tau(  12) = (  0.3302651  0.7499958  0.5421111  )
        13        Li     tau(  13) = (  1.0236463  0.5000001  0.5763027  )
        14        Li     tau(  14) = (  0.6429927  0.2499652  0.4237039  )
        15        Li     tau(  15) = (  0.8363757  0.5000001  0.4578978  )
        16        Li     tau(  16) = (  1.0238407  0.2500331  0.4827635  )
        17        Li     tau(  17) = (  0.6428349  0.5000001  0.5172235  )
        18        Li     tau(  18) = (  0.8303328  0.2500094  0.5421145  )
        19        Li     tau(  19) = (  1.0236415  1.0000001  0.5763006  )
        20        Li     tau(  20) = (  0.6429927  0.7500350  0.4237039  )
        21        Li     tau(  21) = (  0.8363058  1.0000001  0.4578752  )
        22        Li     tau(  22) = (  1.0238407  0.7499671  0.4827635  )
        23        Li     tau(  23) = (  0.6428107  1.0000001  0.5172352  )
        24        Li     tau(  24) = (  0.8303328  0.7499908  0.5421145  )

     number of k points=    24  Marzari-Vanderbilt smearing, width (Ry)=  0.0100
                       cart. coord. in units 2pi/alat
        k(    1) = (   0.0000000   0.0000000   0.0000000), wk =   0.0259740
        k(    2) = (   0.0000000   0.0874818   0.0000000), wk =   0.0519481
        k(    3) = (   0.0000000   0.1749636   0.0000000), wk =   0.0519481
        k(    4) = (   0.0000000   0.2624454   0.0000000), wk =   0.0519481
        k(    5) = (   0.0909091   0.0000000   0.0000000), wk =   0.0519481
        k(    6) = (   0.0909091   0.0874818   0.0000000), wk =   0.1038961
        k(    7) = (   0.0909091   0.1749636   0.0000000), wk =   0.1038961
        k(    8) = (   0.0909091   0.2624454   0.0000000), wk =   0.1038961
        k(    9) = (   0.1818182   0.0000000   0.0000000), wk =   0.0519481
        k(   10) = (   0.1818182   0.0874818   0.0000000), wk =   0.1038961
        k(   11) = (   0.1818182   0.1749636   0.0000000), wk =   0.1038961
        k(   12) = (   0.1818182   0.2624454   0.0000000), wk =   0.1038961
        k(   13) = (   0.2727273   0.0000000   0.0000000), wk =   0.0519481
        k(   14) = (   0.2727273   0.0874818   0.0000000), wk =   0.1038961
        k(   15) = (   0.2727273   0.1749636   0.0000000), wk =   0.1038961
        k(   16) = (   0.2727273   0.2624454   0.0000000), wk =   0.1038961
        k(   17) = (   0.3636364   0.0000000   0.0000000), wk =   0.0519481
        k(   18) = (   0.3636364   0.0874818   0.0000000), wk =   0.1038961
        k(   19) = (   0.3636364   0.1749636   0.0000000), wk =   0.1038961
        k(   20) = (   0.3636364   0.2624454   0.0000000), wk =   0.1038961
        k(   21) = (   0.4545455   0.0000000   0.0000000), wk =   0.0519481
        k(   22) = (   0.4545455   0.0874818   0.0000000), wk =   0.1038961
        k(   23) = (   0.4545455   0.1749636   0.0000000), wk =   0.1038961
        k(   24) = (   0.4545455   0.2624454   0.0000000), wk =   0.1038961

                       cryst. coord.
        k(    1) = (   0.0000000   0.0000000   0.0000000), wk =   0.0259740
        k(    2) = (   0.0000000   0.1428571   0.0000000), wk =   0.0519481
        k(    3) = (   0.0000000   0.2857143   0.0000000), wk =   0.0519481
        k(    4) = (   0.0000000   0.4285714   0.0000000), wk =   0.0519481
        k(    5) = (   0.0909091   0.0000000   0.0000000), wk =   0.0519481
        k(    6) = (   0.0909091   0.1428571   0.0000000), wk =   0.1038961
        k(    7) = (   0.0909091   0.2857143   0.0000000), wk =   0.1038961
        k(    8) = (   0.0909091   0.4285714   0.0000000), wk =   0.1038961
        k(    9) = (   0.1818182   0.0000000   0.0000000), wk =   0.0519481
        k(   10) = (   0.1818182   0.1428571   0.0000000), wk =   0.1038961
        k(   11) = (   0.1818182   0.2857143   0.0000000), wk =   0.1038961
        k(   12) = (   0.1818182   0.4285714   0.0000000), wk =   0.1038961
        k(   13) = (   0.2727273   0.0000000   0.0000000), wk =   0.0519481
        k(   14) = (   0.2727273   0.1428571   0.0000000), wk =   0.1038961
        k(   15) = (   0.2727273   0.2857143   0.0000000), wk =   0.1038961
        k(   16) = (   0.2727273   0.4285714   0.0000000), wk =   0.1038961
        k(   17) = (   0.3636364   0.0000000   0.0000000), wk =   0.0519481
        k(   18) = (   0.3636364   0.1428571   0.0000000), wk =   0.1038961
        k(   19) = (   0.3636364   0.2857143   0.0000000), wk =   0.1038961
        k(   20) = (   0.3636364   0.4285714   0.0000000), wk =   0.1038961
        k(   21) = (   0.4545455   0.0000000   0.0000000), wk =   0.0519481
        k(   22) = (   0.4545455   0.1428571   0.0000000), wk =   0.1038961
        k(   23) = (   0.4545455   0.2857143   0.0000000), wk =   0.1038961
        k(   24) = (   0.4545455   0.4285714   0.0000000), wk =   0.1038961

     Dense  grid:  7013397 G-vectors     FFT dimensions: ( 108, 180, 810)

     Smooth grid:  1773951 G-vectors     FFT dimensions: (  72, 108, 512)

     Dynamical RAM for                 wfc:       0.95 MB

     Dynamical RAM for     wfc (w. buffer):      12.37 MB

     Dynamical RAM for           str. fact:       0.56 MB

     Dynamical RAM for           local pot:       0.00 MB

     Dynamical RAM for          nlocal pot:       3.38 MB

     Dynamical RAM for                qrad:       0.65 MB

     Dynamical RAM for          rho,v,vnew:       3.90 MB

     Dynamical RAM for               rhoin:       1.30 MB

     Dynamical RAM for            rho*nmix:       8.92 MB

     Dynamical RAM for           G-vectors:       2.16 MB

     Dynamical RAM for          h,s,v(r/c):       2.14 MB

     Dynamical RAM for          <psi|beta>:       0.16 MB

     Dynamical RAM for                 psi:       3.81 MB

     Dynamical RAM for                hpsi:       3.81 MB

     Dynamical RAM for                spsi:       3.81 MB

     Dynamical RAM for      wfcinit/wfcrot:       1.97 MB

     Dynamical RAM for           addusdens:      18.96 MB

     Dynamical RAM for          addusforce:      31.80 MB

     Estimated static dynamical RAM per process >      29.14 MB

     Estimated max dynamical RAM per process >     107.02 MB

     Estimated total dynamical RAM >      24.53 GB

     Initial potential from superposition of free atoms

     starting charge      71.8894, renormalised to      72.0000

     negative rho (up, down):  3.054E-03 0.000E+00
     Starting wfcs are random
     Checking if some PAW data can be deallocated... 

     total cpu time spent up to now is       23.3 secs

     Self-consistent Calculation

     iteration #  1     ecut=    80.00 Ry     beta= 0.20
     Davidson diagonalization with overlap

---- Real-time Memory Report at c_bands before calling an iterative solver
           458 MiB given to the printing process from OS
             0 MiB allocation reported by mallinfo(arena+hblkhd)
        215576 MiB available memory on the node where the printing process lives
------------------
     c_bands:  1 eigenvalues not converged
     ethr =  1.00E-12,  avg # of iterations = 98.8

     negative rho (up, down):  2.247E-03 0.000E+00

     total cpu time spent up to now is      108.5 secs

     total energy              =    -360.90584823 Ry
     estimated scf accuracy    <       0.12643897 Ry

     total charge of GC-SCF    =       0.04138710 e
     the Fermi energy          =      -4.64194607 eV
                        (error :       1.73794607 eV)
     electrostatic embedding   =       0.00000000 Ry
     cavitation energy         =       0.02545705 Ry
     electrolyte free energy   =       0.00789959 Ry
     correction to one-el term =      -0.00000000 Ry

     iteration #  2     ecut=    80.00 Ry     beta= 0.20
     Davidson diagonalization with overlap

---- Real-time Memory Report at c_bands before calling an iterative solver
           458 MiB given to the printing process from OS
             0 MiB allocation reported by mallinfo(arena+hblkhd)
        214653 MiB available memory on the node where the printing process lives
------------------
     ethr =  1.00E-05,  avg # of iterations =  8.5

     negative rho (up, down):  1.602E-03 0.000E+00

     add environment contribution to local potential

     total cpu time spent up to now is      124.5 secs

     total energy              =    -360.70839828 Ry
     estimated scf accuracy    <       0.04763889 Ry

     total charge of GC-SCF    =       0.09068470 e
     the Fermi energy          =      -4.07795866 eV
                        (error :       1.17395866 eV)
     electrostatic embedding   =       0.00025503 Ry
     cavitation energy         =       0.02545705 Ry
     electrolyte free energy   =       0.00789959 Ry
     correction to one-el term =      -0.00000000 Ry

     iteration #  3     ecut=    80.00 Ry     beta= 0.20
     Davidson diagonalization with overlap

---- Real-time Memory Report at c_bands before calling an iterative solver
           458 MiB given to the printing process from OS
             0 MiB allocation reported by mallinfo(arena+hblkhd)
        214602 MiB available memory on the node where the printing process lives
------------------
     ethr =  1.00E-05,  avg # of iterations = 22.0

     negative rho (up, down):  1.315E-03 0.000E+00

     add environment contribution to local potential

     total cpu time spent up to now is      148.8 secs

     total energy              =    -360.76355676 Ry
     estimated scf accuracy    <       0.01248536 Ry

     total charge of GC-SCF    =       0.09407796 e
     the Fermi energy          =      -2.91531770 eV
                        (error :       0.01131770 eV)
     electrostatic embedding   =      -0.02698535 Ry
     cavitation energy         =       0.02545705 Ry
     electrolyte free energy   =      -0.00280176 Ry
     correction to one-el term =      -2.97571054 Ry

     iteration #  4     ecut=    80.00 Ry     beta= 0.20
     Davidson diagonalization with overlap

---- Real-time Memory Report at c_bands before calling an iterative solver
           458 MiB given to the printing process from OS
             0 MiB allocation reported by mallinfo(arena+hblkhd)
        214593 MiB available memory on the node where the printing process lives
------------------
     ethr =  1.00E-05,  avg # of iterations =  8.3

     negative rho (up, down):  1.063E-03 0.000E+00

     add environment contribution to local potential

     total cpu time spent up to now is      163.6 secs

     total energy              =    -360.75288270 Ry
     estimated scf accuracy    <       0.00943178 Ry

     total charge of GC-SCF    =       0.15628325 e
     the Fermi energy          =      -3.16276546 eV
                        (error :       0.25876546 eV)
     electrostatic embedding   =      -0.02647160 Ry
     cavitation energy         =       0.02545705 Ry
     electrolyte free energy   =      -0.00336621 Ry
     correction to one-el term =      -2.52361957 Ry

     iteration #  5     ecut=    80.00 Ry     beta= 0.20
     Davidson diagonalization with overlap

---- Real-time Memory Report at c_bands before calling an iterative solver
           458 MiB given to the printing process from OS
             0 MiB allocation reported by mallinfo(arena+hblkhd)
        214570 MiB available memory on the node where the printing process lives
------------------
     ethr =  1.00E-05,  avg # of iterations = 11.5

     negative rho (up, down):  8.949E-04 0.000E+00

     add environment contribution to local potential

     total cpu time spent up to now is      180.1 secs

     total energy              =    -360.75476890 Ry
     estimated scf accuracy    <       0.00238120 Ry

     total charge of GC-SCF    =       0.23167062 e
     the Fermi energy          =      -2.88953986 eV
                        (error :       0.01446014 eV)
     electrostatic embedding   =      -0.02928865 Ry
     cavitation energy         =       0.02545705 Ry
     electrolyte free energy   =      -0.00219860 Ry
     correction to one-el term =      -2.78390620 Ry

     iteration #  6     ecut=    80.00 Ry     beta= 0.20
     Davidson diagonalization with overlap

---- Real-time Memory Report at c_bands before calling an iterative solver
           458 MiB given to the printing process from OS
             0 MiB allocation reported by mallinfo(arena+hblkhd)
        214552 MiB available memory on the node where the printing process lives
------------------
     ethr =  3.32E-06,  avg # of iterations = 20.3

     negative rho (up, down):  8.364E-04 0.000E+00

     add environment contribution to local potential

     total cpu time spent up to now is      201.7 secs

     total energy              =    -360.78230022 Ry
     estimated scf accuracy    <       0.00314327 Ry

     total charge of GC-SCF    =       0.29465831 e
     the Fermi energy          =      -2.53682570 eV
                        (error :       0.36717430 eV)
     electrostatic embedding   =      -0.03945040 Ry
     cavitation energy         =       0.02545705 Ry
     electrolyte free energy   =      -0.00140694 Ry
     correction to one-el term =      -3.08587709 Ry

     iteration #  7     ecut=    80.00 Ry     beta= 0.20
     Davidson diagonalization with overlap

---- Real-time Memory Report at c_bands before calling an iterative solver
           458 MiB given to the printing process from OS
             0 MiB allocation reported by mallinfo(arena+hblkhd)
        214524 MiB available memory on the node where the printing process lives
------------------
     ethr =  3.32E-06,  avg # of iterations = 10.6

     negative rho (up, down):  1.014E-03 0.000E+00

     add environment contribution to local potential

     total cpu time spent up to now is      217.1 secs

     total energy              =    -360.77177021 Ry
     estimated scf accuracy    <       0.00095751 Ry

     total charge of GC-SCF    =       0.30877272 e
     the Fermi energy          =      -2.59376255 eV
                        (error :       0.31023745 eV)
     electrostatic embedding   =      -0.04901488 Ry
     cavitation energy         =       0.02545705 Ry
     electrolyte free energy   =      -0.00151181 Ry
     correction to one-el term =      -3.52793109 Ry

     iteration #  8     ecut=    80.00 Ry     beta= 0.20
     Davidson diagonalization with overlap

---- Real-time Memory Report at c_bands before calling an iterative solver
           458 MiB given to the printing process from OS
             0 MiB allocation reported by mallinfo(arena+hblkhd)
        214498 MiB available memory on the node where the printing process lives
------------------
     ethr =  1.34E-06,  avg # of iterations = 11.0

     negative rho (up, down):  8.467E-04 0.000E+00

     add environment contribution to local potential

     total cpu time spent up to now is      233.5 secs

     total energy              =    -360.77518794 Ry
     estimated scf accuracy    <       0.00049958 Ry

     total charge of GC-SCF    =       0.31337880 e
     the Fermi energy          =      -2.76726789 eV
                        (error :       0.13673211 eV)
     electrostatic embedding   =      -0.04814187 Ry
     cavitation energy         =       0.02545705 Ry
     electrolyte free energy   =      -0.00176710 Ry
     correction to one-el term =      -3.98850074 Ry

     iteration #  9     ecut=    80.00 Ry     beta= 0.20
     Davidson diagonalization with overlap

---- Real-time Memory Report at c_bands before calling an iterative solver
           458 MiB given to the printing process from OS
             0 MiB allocation reported by mallinfo(arena+hblkhd)
        214471 MiB available memory on the node where the printing process lives
------------------
     ethr =  6.97E-07,  avg # of iterations = 12.2

     negative rho (up, down):  1.439E-03 0.000E+00

     add environment contribution to local potential

     total cpu time spent up to now is      250.3 secs

     total energy              =    -360.77769013 Ry
     estimated scf accuracy    <       0.00016479 Ry

     total charge of GC-SCF    =       0.37215949 e
     the Fermi energy          =      -2.69933112 eV
                        (error :       0.20466888 eV)
     electrostatic embedding   =      -0.04580326 Ry
     cavitation energy         =       0.02545705 Ry
     electrolyte free energy   =      -0.00166911 Ry
     correction to one-el term =      -4.87588502 Ry

     iteration # 10     ecut=    80.00 Ry     beta= 0.20
     Davidson diagonalization with overlap

---- Real-time Memory Report at c_bands before calling an iterative solver
           458 MiB given to the printing process from OS
             0 MiB allocation reported by mallinfo(arena+hblkhd)
        214413 MiB available memory on the node where the printing process lives
------------------
     ethr =  2.30E-07,  avg # of iterations = 10.8

     negative rho (up, down):  5.670E-04 0.000E+00

     add environment contribution to local potential

     total cpu time spent up to now is      267.0 secs

     total energy              =    -360.77517286 Ry
     estimated scf accuracy    <       0.00037504 Ry

     total charge of GC-SCF    =       0.39928161 e
     the Fermi energy          =      -2.66323451 eV
                        (error :       0.24076549 eV)
     electrostatic embedding   =      -0.05375137 Ry
     cavitation energy         =       0.02545705 Ry
     electrolyte free energy   =      -0.00169028 Ry
     correction to one-el term =      -6.06078420 Ry

     iteration # 11     ecut=    80.00 Ry     beta= 0.20
     Davidson diagonalization with overlap

---- Real-time Memory Report at c_bands before calling an iterative solver
           458 MiB given to the printing process from OS
             0 MiB allocation reported by mallinfo(arena+hblkhd)
        214415 MiB available memory on the node where the printing process lives
------------------
     ethr =  2.30E-07,  avg # of iterations = 11.0

     negative rho (up, down):  4.989E-04 0.000E+00

     add environment contribution to local potential

     total cpu time spent up to now is      283.4 secs

     total energy              =    -360.77631015 Ry
     estimated scf accuracy    <       0.00009795 Ry

     total charge of GC-SCF    =       0.43588208 e
     the Fermi energy          =      -2.72881312 eV
                        (error :       0.17518688 eV)
     electrostatic embedding   =      -0.05333995 Ry
     cavitation energy         =       0.02545705 Ry
     electrolyte free energy   =      -0.00182319 Ry
     correction to one-el term =      -7.47492156 Ry

     iteration # 12     ecut=    80.00 Ry     beta= 0.20
     Davidson diagonalization with overlap

---- Real-time Memory Report at c_bands before calling an iterative solver
           458 MiB given to the printing process from OS
             0 MiB allocation reported by mallinfo(arena+hblkhd)
        214425 MiB available memory on the node where the printing process lives
------------------
     ethr =  1.37E-07,  avg # of iterations = 18.4

     negative rho (up, down):  4.697E-04 0.000E+00

     add environment contribution to local potential

     total cpu time spent up to now is      304.0 secs

     total energy              =    -360.77749332 Ry
     estimated scf accuracy    <       0.00001905 Ry

     total charge of GC-SCF    =       0.48462577 e
     the Fermi energy          =      -2.79570184 eV
                        (error :       0.10829816 eV)
     electrostatic embedding   =      -0.05645030 Ry
     cavitation energy         =       0.02545705 Ry
     electrolyte free energy   =      -0.00201416 Ry
     correction to one-el term =      -8.67244241 Ry

     iteration # 13     ecut=    80.00 Ry     beta= 0.20
     Davidson diagonalization with overlap

---- Real-time Memory Report at c_bands before calling an iterative solver
           458 MiB given to the printing process from OS
             0 MiB allocation reported by mallinfo(arena+hblkhd)
        214418 MiB available memory on the node where the printing process lives
------------------
     ethr =  2.66E-08,  avg # of iterations = 14.2

     negative rho (up, down):  4.463E-04 0.000E+00

     add environment contribution to local potential

     total cpu time spent up to now is      322.3 secs

     total energy              =    -360.77841328 Ry
     estimated scf accuracy    <       0.00002071 Ry

     total charge of GC-SCF    =       0.49696518 e
     the Fermi energy          =      -2.81344366 eV
                        (error :       0.09055634 eV)
     electrostatic embedding   =      -0.06290653 Ry
     cavitation energy         =       0.02545705 Ry
     electrolyte free energy   =      -0.00213255 Ry
     correction to one-el term =     -10.09395972 Ry

     iteration # 14     ecut=    80.00 Ry     beta= 0.20
     Davidson diagonalization with overlap

---- Real-time Memory Report at c_bands before calling an iterative solver
           458 MiB given to the printing process from OS
             0 MiB allocation reported by mallinfo(arena+hblkhd)
        214420 MiB available memory on the node where the printing process lives
------------------
     ethr =  2.66E-08,  avg # of iterations =  9.7

     negative rho (up, down):  4.432E-04 0.000E+00

     add environment contribution to local potential

     total cpu time spent up to now is      337.5 secs

     total energy              =    -360.77820640 Ry
     estimated scf accuracy    <       0.00000673 Ry

     total charge of GC-SCF    =       0.52998458 e
     the Fermi energy          =      -2.80288257 eV
                        (error :       0.10111743 eV)
     electrostatic embedding   =      -0.06498112 Ry
     cavitation energy         =       0.02545705 Ry
     electrolyte free energy   =      -0.00212488 Ry
     correction to one-el term =     -10.40389963 Ry

     iteration # 15     ecut=    80.00 Ry     beta= 0.20
     Davidson diagonalization with overlap

---- Real-time Memory Report at c_bands before calling an iterative solver
           458 MiB given to the printing process from OS
             0 MiB allocation reported by mallinfo(arena+hblkhd)
        214420 MiB available memory on the node where the printing process lives
------------------
     ethr =  9.41E-09,  avg # of iterations = 14.5

     negative rho (up, down):  4.268E-04 0.000E+00

     add environment contribution to local potential

     total cpu time spent up to now is      355.8 secs

     total energy              =    -360.77855166 Ry
     estimated scf accuracy    <       0.00000501 Ry

     total charge of GC-SCF    =       0.62823673 e
     the Fermi energy          =      -2.80916302 eV
                        (error :       0.09483698 eV)
     electrostatic embedding   =      -0.07013106 Ry
     cavitation energy         =       0.02545705 Ry
     electrolyte free energy   =      -0.00219486 Ry
     correction to one-el term =     -11.33654152 Ry

     iteration # 16     ecut=    80.00 Ry     beta= 0.20
     Davidson diagonalization with overlap

---- Real-time Memory Report at c_bands before calling an iterative solver
           458 MiB given to the printing process from OS
             0 MiB allocation reported by mallinfo(arena+hblkhd)
        214422 MiB available memory on the node where the printing process lives
------------------
     ethr =  7.02E-09,  avg # of iterations = 15.9

     negative rho (up, down):  4.548E-04 0.000E+00

     add environment contribution to local potential

     total cpu time spent up to now is      374.3 secs

     total energy              =    -360.78007468 Ry
     estimated scf accuracy    <       0.00000296 Ry

     total charge of GC-SCF    =       0.73454382 e
     the Fermi energy          =      -2.84333374 eV
                        (error :       0.06066626 eV)
     electrostatic embedding   =      -0.08769039 Ry
     cavitation energy         =       0.02545705 Ry
     electrolyte free energy   =      -0.00247118 Ry
     correction to one-el term =     -14.28172983 Ry

     iteration # 17     ecut=    80.00 Ry     beta= 0.20
     Davidson diagonalization with overlap

---- Real-time Memory Report at c_bands before calling an iterative solver
           458 MiB given to the printing process from OS
             0 MiB allocation reported by mallinfo(arena+hblkhd)
        214427 MiB available memory on the node where the printing process lives
------------------
     ethr =  4.15E-09,  avg # of iterations = 20.0

     negative rho (up, down):  4.456E-04 0.000E+00

     add environment contribution to local potential

     total cpu time spent up to now is      398.2 secs

     total energy              =    -360.77963953 Ry
     estimated scf accuracy    <       0.00000176 Ry

     total charge of GC-SCF    =       0.74120035 e
     the Fermi energy          =      -2.87884748 eV
                        (error :       0.02515252 eV)
     electrostatic embedding   =      -0.11137584 Ry
     cavitation energy         =       0.02545705 Ry
     electrolyte free energy   =      -0.00280705 Ry
     correction to one-el term =     -17.41773015 Ry

     iteration # 18     ecut=    80.00 Ry     beta= 0.20
     Davidson diagonalization with overlap

---- Real-time Memory Report at c_bands before calling an iterative solver
           458 MiB given to the printing process from OS
             0 MiB allocation reported by mallinfo(arena+hblkhd)
        214395 MiB available memory on the node where the printing process lives
------------------
     ethr =  2.46E-09,  avg # of iterations = 12.3

     negative rho (up, down):  4.039E-04 0.000E+00

     add environment contribution to local potential

     total cpu time spent up to now is      415.1 secs

     total energy              =    -360.77965881 Ry
     estimated scf accuracy    <       0.00000100 Ry

     total charge of GC-SCF    =       0.77004672 e
     the Fermi energy          =      -2.87870037 eV
                        (error :       0.02529963 eV)
     electrostatic embedding   =      -0.11312851 Ry
     cavitation energy         =       0.02545705 Ry
     electrolyte free energy   =      -0.00282282 Ry
     correction to one-el term =     -17.59977975 Ry

     iteration # 19     ecut=    80.00 Ry     beta= 0.20
     Davidson diagonalization with overlap

---- Real-time Memory Report at c_bands before calling an iterative solver
           458 MiB given to the printing process from OS
             0 MiB allocation reported by mallinfo(arena+hblkhd)
        214391 MiB available memory on the node where the printing process lives
------------------
     ethr =  1.40E-09,  avg # of iterations = 18.0

     negative rho (up, down):  3.871E-04 0.000E+00

     add environment contribution to local potential

     total cpu time spent up to now is      436.0 secs

     total energy              =    -360.77968653 Ry
     estimated scf accuracy    <       0.00000054 Ry

     total charge of GC-SCF    =       0.77751906 e
     the Fermi energy          =      -2.89024990 eV
                        (error :       0.01375010 eV)
     electrostatic embedding   =      -0.12064363 Ry
     cavitation energy         =       0.02545705 Ry
     electrolyte free energy   =      -0.00292732 Ry
     correction to one-el term =     -18.44189478 Ry

     iteration # 20     ecut=    80.00 Ry     beta= 0.20
     Davidson diagonalization with overlap

---- Real-time Memory Report at c_bands before calling an iterative solver
           458 MiB given to the printing process from OS
             0 MiB allocation reported by mallinfo(arena+hblkhd)
        214380 MiB available memory on the node where the printing process lives
------------------
     ethr =  7.65E-10,  avg # of iterations = 12.6

     negative rho (up, down):  3.803E-04 0.000E+00

     add environment contribution to local potential

     total cpu time spent up to now is      453.6 secs

     total energy              =    -360.77969877 Ry
     estimated scf accuracy    <       0.00000038 Ry

     total charge of GC-SCF    =       0.78034539 e
     the Fermi energy          =      -2.89284399 eV
                        (error :       0.01115601 eV)
     electrostatic embedding   =      -0.12266678 Ry
     cavitation energy         =       0.02545705 Ry
     electrolyte free energy   =      -0.00295536 Ry
     correction to one-el term =     -18.67110599 Ry

     iteration # 21     ecut=    80.00 Ry     beta= 0.20
     Davidson diagonalization with overlap

---- Real-time Memory Report at c_bands before calling an iterative solver
           458 MiB given to the printing process from OS
             0 MiB allocation reported by mallinfo(arena+hblkhd)
        214365 MiB available memory on the node where the printing process lives
------------------
     ethr =  5.38E-10,  avg # of iterations =  9.6

     negative rho (up, down):  3.806E-04 0.000E+00

     add environment contribution to local potential

     total cpu time spent up to now is      469.2 secs

     total energy              =    -360.77973952 Ry
     estimated scf accuracy    <       0.00000019 Ry

     total charge of GC-SCF    =       0.79980561 e
     the Fermi energy          =      -2.89497778 eV
                        (error :       0.00902222 eV)
     electrostatic embedding   =      -0.12342279 Ry
     cavitation energy         =       0.02545705 Ry
     electrolyte free energy   =      -0.00297253 Ry
     correction to one-el term =     -18.77236833 Ry

     iteration # 22     ecut=    80.00 Ry     beta= 0.20
     Davidson diagonalization with overlap

---- Real-time Memory Report at c_bands before calling an iterative solver
           458 MiB given to the printing process from OS
             0 MiB allocation reported by mallinfo(arena+hblkhd)
        214375 MiB available memory on the node where the printing process lives
------------------
     ethr =  2.66E-10,  avg # of iterations = 18.0

     negative rho (up, down):  3.766E-04 0.000E+00

     add environment contribution to local potential

     total cpu time spent up to now is      491.1 secs

     total energy              =    -360.77970791 Ry
     estimated scf accuracy    <       0.00000006 Ry

     total charge of GC-SCF    =       0.80284654 e
     the Fermi energy          =      -2.90150527 eV
                        (error :       0.00249473 eV)
     electrostatic embedding   =      -0.12866942 Ry
     cavitation energy         =       0.02545705 Ry
     electrolyte free energy   =      -0.00304221 Ry
     correction to one-el term =     -19.33541216 Ry

     iteration # 23     ecut=    80.00 Ry     beta= 0.20
     Davidson diagonalization with overlap

---- Real-time Memory Report at c_bands before calling an iterative solver
           458 MiB given to the printing process from OS
             0 MiB allocation reported by mallinfo(arena+hblkhd)
        214370 MiB available memory on the node where the printing process lives
------------------
     ethr =  8.13E-11,  avg # of iterations = 11.2

     negative rho (up, down):  3.733E-04 0.000E+00

     add environment contribution to local potential

     total cpu time spent up to now is      507.8 secs

     total energy              =    -360.77970741 Ry
     estimated scf accuracy    <       0.00000004 Ry

     total charge of GC-SCF    =       0.80325900 e
     the Fermi energy          =      -2.90232487 eV
                        (error :       0.00167513 eV)
     electrostatic embedding   =      -0.12948718 Ry
     cavitation energy         =       0.02545705 Ry
     electrolyte free energy   =      -0.00305237 Ry
     correction to one-el term =     -19.42487310 Ry

     iteration # 24     ecut=    80.00 Ry     beta= 0.20
     Davidson diagonalization with overlap

---- Real-time Memory Report at c_bands before calling an iterative solver
           458 MiB given to the printing process from OS
             0 MiB allocation reported by mallinfo(arena+hblkhd)
        214370 MiB available memory on the node where the printing process lives
------------------
     ethr =  5.09E-11,  avg # of iterations = 11.5

     negative rho (up, down):  3.743E-04 0.000E+00

     add environment contribution to local potential

     total cpu time spent up to now is      524.7 secs

     total energy              =    -360.77970798 Ry
     estimated scf accuracy    <       0.00000002 Ry

     total charge of GC-SCF    =       0.80603361 e
     the Fermi energy          =      -2.90241771 eV
                        (error :       0.00158229 eV)
     electrostatic embedding   =      -0.12958507 Ry
     cavitation energy         =       0.02545705 Ry
     electrolyte free energy   =      -0.00305345 Ry
     correction to one-el term =     -19.43907209 Ry

     iteration # 25     ecut=    80.00 Ry     beta= 0.20
     Davidson diagonalization with overlap

---- Real-time Memory Report at c_bands before calling an iterative solver
           458 MiB given to the printing process from OS
             0 MiB allocation reported by mallinfo(arena+hblkhd)
        214368 MiB available memory on the node where the printing process lives
------------------
     ethr =  2.42E-11,  avg # of iterations = 18.2

     negative rho (up, down):  3.632E-04 0.000E+00

     total cpu time spent up to now is      538.5 secs

     End of self-consistent calculation

          k = 0.0000 0.0000 0.0000 (221585 PWs)   bands (ev):

   -50.4275 -50.4272 -50.4271 -50.4270 -50.4196 -50.4194 -50.4192 -50.4192
   -49.5650 -49.5647 -49.5647 -49.5643 -49.5567 -49.5566 -49.5565 -49.5562
   -49.4022 -49.3988 -49.3986 -49.3947 -49.3939 -49.3907 -49.3905 -49.3871
    -6.2308  -5.4302  -5.0530  -5.0530  -4.2349  -4.2348  -4.1971  -3.1911
    -3.0021  -3.0019  -3.0002  -2.6791  -2.5438  -2.4902  -2.4901  -2.3511
    -2.3119  -2.0378  -2.0377  -1.6682  -1.3717  -1.3715  -1.3075  -1.2927
    -1.1013  -1.1013  -0.3947  -0.1568  -0.0312   0.0008

     occupation numbers 
     1.0000   1.0000   1.0000   1.0000   1.0000   1.0000   1.0000   1.0000
     1.0000   1.0000   1.0000   1.0000   1.0000   1.0000   1.0000   1.0000
     1.0000   1.0000   1.0000   1.0000   1.0000   1.0000   1.0000   1.0000
     1.0000   1.0000   1.0000   1.0000   1.0000   1.0000   1.0000   1.0317
     0.9092   0.9086   0.9017   0.0020   0.0000   0.0000   0.0000   0.0000
     0.0000   0.0000   0.0000   0.0000   0.0000   0.0000   0.0000   0.0000
     0.0000   0.0000   0.0000   0.0000   0.0000   0.0000

          k = 0.0000 0.0875 0.0000 (221558 PWs)   bands (ev):

   -50.4275 -50.4272 -50.4271 -50.4270 -50.4196 -50.4194 -50.4192 -50.4192
   -49.5650 -49.5647 -49.5646 -49.5643 -49.5566 -49.5566 -49.5565 -49.5562
   -49.4021 -49.3995 -49.3978 -49.3948 -49.3938 -49.3913 -49.3898 -49.3872
    -6.2066  -5.4060  -5.3622  -4.7325  -4.5032  -4.1729  -3.9020  -3.2682
    -3.1698  -2.9803  -2.7154  -2.6595  -2.5885  -2.5224  -2.5162  -2.4839
    -2.3010  -2.0999  -2.0152  -1.7614  -1.5280  -1.3492  -1.2986  -1.2470
    -1.2155  -0.8376  -0.4048  -0.1224  -0.0127   0.0411

     occupation numbers 
     1.0000   1.0000   1.0000   1.0000   1.0000   1.0000   1.0000   1.0000
     1.0000   1.0000   1.0000   1.0000   1.0000   1.0000   1.0000   1.0000
     1.0000   1.0000   1.0000   1.0000   1.0000   1.0000   1.0000   1.0000
     1.0000   1.0000   1.0000   1.0000   1.0000   1.0000   1.0000   1.0055
     1.0450   0.8117   0.0067   0.0010   0.0001   0.0000   0.0000   0.0000
     0.0000   0.0000   0.0000   0.0000   0.0000   0.0000   0.0000   0.0000
     0.0000   0.0000   0.0000   0.0000   0.0000   0.0000

          k = 0.0000 0.1750 0.0000 (221554 PWs)   bands (ev):

   -50.4275 -50.4272 -50.4271 -50.4270 -50.4196 -50.4194 -50.4192 -50.4192
   -49.5650 -49.5648 -49.5646 -49.5643 -49.5566 -49.5566 -49.5565 -49.5562
   -49.4019 -49.4003 -49.3970 -49.3951 -49.3936 -49.3920 -49.3891 -49.3875
    -6.1341  -5.6269  -5.3335  -4.8362  -4.2604  -4.1008  -3.6903  -3.3356
    -3.1069  -2.9215  -2.9024  -2.7294  -2.6038  -2.5766  -2.5003  -2.4594
    -2.2704  -2.1412  -2.0954  -2.0882  -1.5613  -1.3534  -1.2760  -1.2670
    -1.1505  -0.5977  -0.5055  -0.0236   0.0014   0.1445

     occupation numbers 
     1.0000   1.0000   1.0000   1.0000   1.0000   1.0000   1.0000   1.0000
     1.0000   1.0000   1.0000   1.0000   1.0000   1.0000   1.0000   1.0000
     1.0000   1.0000   1.0000   1.0000   1.0000   1.0000   1.0000   1.0000
     1.0000   1.0000   1.0000   1.0000   1.0000   1.0000   1.0000   1.0007
     1.0818   0.4958   0.3956   0.0102   0.0001   0.0000   0.0000   0.0000
     0.0000   0.0000   0.0000   0.0000   0.0000   0.0000   0.0000   0.0000
     0.0000   0.0000   0.0000   0.0000   0.0000   0.0000

          k = 0.0000 0.2624 0.0000 (221568 PWs)   bands (ev):

   -50.4275 -50.4272 -50.4271 -50.4271 -50.4196 -50.4194 -50.4192 -50.4192
   -49.5649 -49.5648 -49.5646 -49.5643 -49.5566 -49.5566 -49.5565 -49.5562
   -49.4015 -49.4009 -49.3963 -49.3956 -49.3932 -49.3926 -49.3885 -49.3879
    -6.0133  -5.8442  -5.2130  -5.0455  -3.9827  -3.8274  -3.8258  -3.3634
    -3.0065  -2.9772  -2.8762  -2.8275  -2.7062  -2.5297  -2.5240  -2.4575
    -2.3584  -2.2289  -2.2267  -2.1805  -1.3569  -1.2818  -1.2532  -1.2492
    -1.1933  -0.9855  -0.1464   0.1155   0.1367   0.1752

     occupation numbers 
     1.0000   1.0000   1.0000   1.0000   1.0000   1.0000   1.0000   1.0000
     1.0000   1.0000   1.0000   1.0000   1.0000   1.0000   1.0000   1.0000
     1.0000   1.0000   1.0000   1.0000   1.0000   1.0000   1.0000   1.0000
     1.0000   1.0000   1.0000   1.0000   1.0000   1.0000   1.0000   1.0002
     0.9267   0.7965   0.2752   0.1174   0.0050   0.0000   0.0000   0.0000
     0.0000   0.0000   0.0000   0.0000   0.0000   0.0000   0.0000   0.0000
     0.0000   0.0000   0.0000   0.0000   0.0000   0.0000

          k = 0.0909 0.0000 0.0000 (221718 PWs)   bands (ev):

   -50.4273 -50.4271 -50.4269 -50.4269 -50.4198 -50.4196 -50.4194 -50.4194
   -49.5649 -49.5645 -49.5645 -49.5642 -49.5568 -49.5567 -49.5566 -49.5563
   -49.4021 -49.3986 -49.3984 -49.3945 -49.3941 -49.3909 -49.3906 -49.3873
    -6.2045  -5.4035  -5.0260  -5.0260  -4.2073  -4.2072  -4.1685  -3.6349
    -2.9700  -2.9699  -2.9030  -2.6695  -2.6694  -2.6490  -2.5120  -2.3167
    -2.0895  -2.0895  -2.0837  -1.6341  -1.3440  -1.3438  -1.3280  -1.2585
    -1.0417  -1.0416  -0.3621  -0.1217   0.0027   0.0358

     occupation numbers 
     1.0000   1.0000   1.0000   1.0000   1.0000   1.0000   1.0000   1.0000
     1.0000   1.0000   1.0000   1.0000   1.0000   1.0000   1.0000   1.0000
     1.0000   1.0000   1.0000   1.0000   1.0000   1.0000   1.0000   1.0000
     1.0000   1.0000   1.0000   1.0000   1.0000   1.0000   1.0000   1.0000
     0.7601   0.7593   0.3990   0.0014   0.0014   0.0007   0.0000   0.0000
     0.0000   0.0000   0.0000   0.0000   0.0000   0.0000   0.0000   0.0000
     0.0000   0.0000   0.0000   0.0000   0.0000   0.0000

          k = 0.0909 0.0875 0.0000 (221669 PWs)   bands (ev):

   -50.4273 -50.4271 -50.4269 -50.4269 -50.4198 -50.4196 -50.4194 -50.4194
   -49.5649 -49.5645 -49.5645 -49.5642 -49.5568 -49.5567 -49.5566 -49.5563
   -49.4020 -49.3994 -49.3977 -49.3946 -49.3940 -49.3915 -49.3900 -49.3874
    -6.1804  -5.3793  -5.3355  -4.7053  -4.4757  -4.1443  -3.8741  -3.6126
    -3.2371  -2.8910  -2.8817  -2.6820  -2.6293  -2.4938  -2.4831  -2.4773
    -2.2246  -2.0710  -1.9896  -1.7270  -1.5022  -1.3273  -1.3169  -1.2521
    -1.1859  -0.7837  -0.3709  -0.0874   0.0219   0.0760

     occupation numbers 
     1.0000   1.0000   1.0000   1.0000   1.0000   1.0000   1.0000   1.0000
     1.0000   1.0000   1.0000   1.0000   1.0000   1.0000   1.0000   1.0000
     1.0000   1.0000   1.0000   1.0000   1.0000   1.0000   1.0000   1.0000
     1.0000   1.0000   1.0000   1.0000   1.0000   1.0000   1.0000   1.0000
     1.0122   0.3408   0.2986   0.0022   0.0003   0.0000   0.0000   0.0000
     0.0000   0.0000   0.0000   0.0000   0.0000   0.0000   0.0000   0.0000
     0.0000   0.0000   0.0000   0.0000   0.0000   0.0000

          k = 0.0909 0.1750 0.0000 (221668 PWs)   bands (ev):

   -50.4273 -50.4271 -50.4269 -50.4269 -50.4198 -50.4196 -50.4194 -50.4194
   -49.5648 -49.5646 -49.5645 -49.5642 -49.5568 -49.5567 -49.5566 -49.5563
   -49.4017 -49.4001 -49.3969 -49.3949 -49.3938 -49.3922 -49.3893 -49.3876
    -6.1079  -5.6003  -5.3067  -4.8090  -4.2325  -4.0721  -3.6617  -3.5462
    -3.3054  -3.1028  -2.8713  -2.8187  -2.5732  -2.4659  -2.4490  -2.4425
    -2.2923  -2.0551  -2.0357  -1.9420  -1.5363  -1.3738  -1.3309  -1.3222
    -1.1194  -0.5643  -0.5158   0.0114   0.0343   0.1792

     occupation numbers 
     1.0000   1.0000   1.0000   1.0000   1.0000   1.0000   1.0000   1.0000
     1.0000   1.0000   1.0000   1.0000   1.0000   1.0000   1.0000   1.0000
     1.0000   1.0000   1.0000   1.0000   1.0000   1.0000   1.0000   1.0000
     1.0000   1.0000   1.0000   1.0000   1.0000   1.0000   1.0000   1.0000
     1.0018   1.0827   0.2554   0.0982   0.0000   0.0000   0.0000   0.0000
     0.0000   0.0000   0.0000   0.0000   0.0000   0.0000   0.0000   0.0000
     0.0000   0.0000   0.0000   0.0000   0.0000   0.0000

          k = 0.0909 0.2624 0.0000 (221625 PWs)   bands (ev):

   -50.4273 -50.4271 -50.4269 -50.4269 -50.4198 -50.4196 -50.4194 -50.4194
   -49.5647 -49.5647 -49.5645 -49.5642 -49.5568 -49.5568 -49.5566 -49.5563
   -49.4014 -49.4007 -49.3961 -49.3954 -49.3934 -49.3928 -49.3886 -49.3880
    -5.9870  -5.8177  -5.1861  -5.0185  -3.9538  -3.7990  -3.7967  -3.4370
    -3.3339  -3.2876  -2.9471  -2.7174  -2.5856  -2.4984  -2.4925  -2.4244
    -2.3699  -2.3049  -1.9870  -1.9456  -1.3874  -1.3524  -1.3299  -1.2504
    -1.1617  -0.9553  -0.2688  -0.0315   0.1482   0.1717

     occupation numbers 
     1.0000   1.0000   1.0000   1.0000   1.0000   1.0000   1.0000   1.0000
     1.0000   1.0000   1.0000   1.0000   1.0000   1.0000   1.0000   1.0000
     1.0000   1.0000   1.0000   1.0000   1.0000   1.0000   1.0000   1.0000
     1.0000   1.0000   1.0000   1.0000   1.0000   1.0000   1.0000   1.0000
     1.0007   1.0031   0.6363   0.0071   0.0000   0.0000   0.0000   0.0000
     0.0000   0.0000   0.0000   0.0000   0.0000   0.0000   0.0000   0.0000
     0.0000   0.0000   0.0000   0.0000   0.0000   0.0000

          k = 0.1818 0.0000 0.0000 (221744 PWs)   bands (ev):

   -50.4269 -50.4266 -50.4264 -50.4264 -50.4203 -50.4200 -50.4198 -50.4198
   -49.5644 -49.5640 -49.5640 -49.5637 -49.5573 -49.5572 -49.5571 -49.5568
   -49.4016 -49.3982 -49.3979 -49.3946 -49.3941 -49.3913 -49.3911 -49.3877
    -6.1259  -5.3233  -4.9453  -4.9453  -4.1247  -4.1246  -4.1195  -4.0831
    -3.3412  -3.0249  -3.0248  -2.8742  -2.8741  -2.5592  -2.3073  -2.3073
    -2.2215  -2.2135  -1.8648  -1.5322  -1.2615  -1.2613  -1.1759  -1.1556
    -1.0015  -1.0014  -0.2654  -0.0165   0.1040   0.1406

     occupation numbers 
     1.0000   1.0000   1.0000   1.0000   1.0000   1.0000   1.0000   1.0000
     1.0000   1.0000   1.0000   1.0000   1.0000   1.0000   1.0000   1.0000
     1.0000   1.0000   1.0000   1.0000   1.0000   1.0000   1.0000   1.0000
     1.0000   1.0000   1.0000   1.0000   1.0000   1.0000   1.0000   1.0000
     1.0005   0.9892   0.9890   0.2671   0.2666   0.0000   0.0000   0.0000
     0.0000   0.0000   0.0000   0.0000   0.0000   0.0000   0.0000   0.0000
     0.0000   0.0000   0.0000   0.0000   0.0000   0.0000

          k = 0.1818 0.0875 0.0000 (221735 PWs)   bands (ev):

   -50.4269 -50.4266 -50.4264 -50.4264 -50.4203 -50.4200 -50.4198 -50.4198
   -49.5644 -49.5641 -49.5640 -49.5637 -49.5573 -49.5572 -49.5571 -49.5568
   -49.4015 -49.3989 -49.3972 -49.3945 -49.3942 -49.3920 -49.3905 -49.3878
    -6.1017  -5.2990  -5.2554  -4.6240  -4.3935  -4.0963  -4.0588  -3.7908
    -3.3186  -3.3028  -3.1440  -2.7477  -2.5819  -2.5392  -2.5169  -2.3839
    -2.1946  -2.0678  -1.8609  -1.6238  -1.4254  -1.2826  -1.2205  -1.2043
    -1.0974  -0.7553  -0.2696   0.0178   0.0455   0.1256

     occupation numbers 
     1.0000   1.0000   1.0000   1.0000   1.0000   1.0000   1.0000   1.0000
     1.0000   1.0000   1.0000   1.0000   1.0000   1.0000   1.0000   1.0000
     1.0000   1.0000   1.0000   1.0000   1.0000   1.0000   1.0000   1.0000
     1.0000   1.0000   1.0000   1.0000   1.0000   1.0000   1.0000   1.0000
     1.0012   1.0020   1.0626   0.0174   0.0000   0.0000   0.0000   0.0000
     0.0000   0.0000   0.0000   0.0000   0.0000   0.0000   0.0000   0.0000
     0.0000   0.0000   0.0000   0.0000   0.0000   0.0000

          k = 0.1818 0.1750 0.0000 (221735 PWs)   bands (ev):

   -50.4269 -50.4266 -50.4264 -50.4264 -50.4203 -50.4200 -50.4198 -50.4198
   -49.5643 -49.5641 -49.5640 -49.5637 -49.5573 -49.5572 -49.5571 -49.5568
   -49.4012 -49.3996 -49.3964 -49.3945 -49.3943 -49.3927 -49.3897 -49.3881
    -6.0291  -5.5207  -5.2263  -4.7279  -4.1494  -4.0266  -3.9862  -3.5762
    -3.5469  -3.2513  -3.2150  -2.8079  -2.7786  -2.4816  -2.3626  -2.3580
    -2.1154  -1.9564  -1.8583  -1.8533  -1.5490  -1.4622  -1.3056  -1.2290
    -1.0262  -0.5949  -0.4645  -0.1936   0.1165   0.1324

     occupation numbers 
     1.0000   1.0000   1.0000   1.0000   1.0000   1.0000   1.0000   1.0000
     1.0000   1.0000   1.0000   1.0000   1.0000   1.0000   1.0000   1.0000
     1.0000   1.0000   1.0000   1.0000   1.0000   1.0000   1.0000   1.0000
     1.0000   1.0000   1.0000   1.0000   1.0000   1.0000   1.0000   1.0000
     1.0000   1.0086   1.0200   0.0781   0.0394   0.0000   0.0000   0.0000
     0.0000   0.0000   0.0000   0.0000   0.0000   0.0000   0.0000   0.0000
     0.0000   0.0000   0.0000   0.0000   0.0000   0.0000

          k = 0.1818 0.2624 0.0000 (221799 PWs)   bands (ev):

   -50.4269 -50.4266 -50.4264 -50.4264 -50.4203 -50.4200 -50.4198 -50.4198
   -49.5643 -49.5642 -49.5640 -49.5637 -49.5573 -49.5572 -49.5571 -49.5568
   -49.4009 -49.4003 -49.3957 -49.3950 -49.3939 -49.3933 -49.3891 -49.3885
    -5.9080  -5.7385  -5.1056  -4.9376  -3.9111  -3.8674  -3.7507  -3.7141
    -3.7096  -3.2458  -3.1405  -2.9895  -2.8570  -2.4052  -2.3981  -2.3251
    -2.0844  -1.9992  -1.8828  -1.7779  -1.6733  -1.4862  -1.2496  -1.1568
    -1.0673  -0.8653  -0.4833  -0.3641   0.2455   0.2765

     occupation numbers 
     1.0000   1.0000   1.0000   1.0000   1.0000   1.0000   1.0000   1.0000
     1.0000   1.0000   1.0000   1.0000   1.0000   1.0000   1.0000   1.0000
     1.0000   1.0000   1.0000   1.0000   1.0000   1.0000   1.0000   1.0000
     1.0000   1.0000   1.0000   1.0000   1.0000   1.0000   1.0000   1.0000
     1.0000   1.0098   1.0650   0.8550   0.2024   0.0000   0.0000   0.0000
     0.0000   0.0000   0.0000   0.0000   0.0000   0.0000   0.0000   0.0000
     0.0000   0.0000   0.0000   0.0000   0.0000   0.0000

          k = 0.2727 0.0000 0.0000 (221756 PWs)   bands (ev):

   -50.4261 -50.4259 -50.4257 -50.4257 -50.4210 -50.4208 -50.4206 -50.4206
   -49.5636 -49.5633 -49.5632 -49.5629 -49.5581 -49.5580 -49.5579 -49.5576
   -49.4008 -49.3974 -49.3972 -49.3954 -49.3934 -49.3921 -49.3919 -49.3884
    -5.9948  -5.1899  -4.8114  -4.8114  -4.5589  -3.9880  -3.9880  -3.9416
    -3.7605  -3.4083  -3.4083  -2.7156  -2.7155  -2.6239  -2.6239  -2.5156
    -2.4112  -2.0416  -1.3858  -1.3629  -1.1942  -1.1941  -1.1257  -1.1254
    -0.9844  -0.9598  -0.1628  -0.1080   0.0562   0.0562

     occupation numbers 
     1.0000   1.0000   1.0000   1.0000   1.0000   1.0000   1.0000   1.0000
     1.0000   1.0000   1.0000   1.0000   1.0000   1.0000   1.0000   1.0000
     1.0000   1.0000   1.0000   1.0000   1.0000   1.0000   1.0000   1.0000
     1.0000   1.0000   1.0000   1.0000   1.0000   1.0000   1.0000   1.0000
     1.0000   1.0000   1.0000   0.0067   0.0067   0.0002   0.0002   0.0000
     0.0000   0.0000   0.0000   0.0000   0.0000   0.0000   0.0000   0.0000
     0.0000   0.0000   0.0000   0.0000   0.0000   0.0000

          k = 0.2727 0.0875 0.0000 (221778 PWs)   bands (ev):

   -50.4261 -50.4259 -50.4257 -50.4257 -50.4210 -50.4208 -50.4206 -50.4206
   -49.5636 -49.5633 -49.5632 -49.5629 -49.5581 -49.5580 -49.5579 -49.5576
   -49.4007 -49.3981 -49.3965 -49.3953 -49.3935 -49.3928 -49.3912 -49.3885
    -5.9705  -5.1656  -5.1224  -4.5351  -4.4891  -4.2573  -3.9171  -3.7370
    -3.7079  -3.6532  -3.1017  -2.9899  -2.8685  -2.4897  -2.4157  -2.3907
    -2.3217  -2.2192  -1.5015  -1.4519  -1.3749  -1.2997  -1.0618  -1.0544
    -0.9510  -0.8533  -0.3809  -0.2138  -0.1020   0.1931

     occupation numbers 
     1.0000   1.0000   1.0000   1.0000   1.0000   1.0000   1.0000   1.0000
     1.0000   1.0000   1.0000   1.0000   1.0000   1.0000   1.0000   1.0000
     1.0000   1.0000   1.0000   1.0000   1.0000   1.0000   1.0000   1.0000
     1.0000   1.0000   1.0000   1.0000   1.0000   1.0000   1.0000   1.0000
     1.0000   1.0000   1.0829   0.8570   0.2441   0.0000   0.0000   0.0000
     0.0000   0.0000   0.0000   0.0000   0.0000   0.0000   0.0000   0.0000
     0.0000   0.0000   0.0000   0.0000   0.0000   0.0000

          k = 0.2727 0.1750 0.0000 (221876 PWs)   bands (ev):

   -50.4261 -50.4259 -50.4257 -50.4257 -50.4210 -50.4208 -50.4206 -50.4206
   -49.5635 -49.5633 -49.5632 -49.5629 -49.5581 -49.5580 -49.5579 -49.5576
   -49.4005 -49.3989 -49.3956 -49.3950 -49.3938 -49.3935 -49.3905 -49.3888
    -5.8978  -5.3884  -5.0928  -4.5932  -4.4636  -4.0117  -3.9659  -3.8440
    -3.6666  -3.4350  -3.1908  -3.0655  -2.6431  -2.6256  -2.4131  -2.3303
    -2.1906  -2.0665  -1.7930  -1.6991  -1.3975  -1.3420  -1.3130  -1.0758
    -0.8720  -0.6158  -0.5865  -0.3200  -0.2994   0.1928

     occupation numbers 
     1.0000   1.0000   1.0000   1.0000   1.0000   1.0000   1.0000   1.0000
     1.0000   1.0000   1.0000   1.0000   1.0000   1.0000   1.0000   1.0000
     1.0000   1.0000   1.0000   1.0000   1.0000   1.0000   1.0000   1.0000
     1.0000   1.0000   1.0000   1.0000   1.0000   1.0000   1.0000   1.0000
     1.0000   1.0000   1.0319   1.0688   0.0005   0.0003   0.0000   0.0000
     0.0000   0.0000   0.0000   0.0000   0.0000   0.0000   0.0000   0.0000
     0.0000   0.0000   0.0000   0.0000   0.0000   0.0000

          k = 0.2727 0.2624 0.0000 (221844 PWs)   bands (ev):

   -50.4261 -50.4259 -50.4257 -50.4257 -50.4210 -50.4208 -50.4206 -50.4206
   -49.5635 -49.5634 -49.5632 -49.5629 -49.5580 -49.5580 -49.5579 -49.5576
   -49.4001 -49.3995 -49.3949 -49.3947 -49.3942 -49.3941 -49.3898 -49.3892
    -5.7765  -5.6066  -4.9718  -4.8035  -4.3447  -4.1786  -3.7243  -3.5738
    -3.5654  -3.5501  -3.3892  -3.1004  -2.7086  -2.2914  -2.2553  -2.2517
    -2.2419  -2.1606  -2.0958  -1.7825  -1.5638  -1.3812  -1.1187  -1.0026
    -0.9109  -0.7175  -0.7079  -0.6927  -0.0930   0.0504

     occupation numbers 
     1.0000   1.0000   1.0000   1.0000   1.0000   1.0000   1.0000   1.0000
     1.0000   1.0000   1.0000   1.0000   1.0000   1.0000   1.0000   1.0000
     1.0000   1.0000   1.0000   1.0000   1.0000   1.0000   1.0000   1.0000
     1.0000   1.0000   1.0000   1.0000   1.0000   1.0000   1.0000   1.0000
     1.0000   1.0000   1.0001   1.0830   0.0054   0.0000   0.0000   0.0000
     0.0000   0.0000   0.0000   0.0000   0.0000   0.0000   0.0000   0.0000
     0.0000   0.0000   0.0000   0.0000   0.0000   0.0000

          k = 0.3636 0.0000 0.0000 (221758 PWs)   bands (ev):

   -50.4252 -50.4250 -50.4248 -50.4248 -50.4219 -50.4217 -50.4215 -50.4215
   -49.5626 -49.5623 -49.5623 -49.5619 -49.5591 -49.5589 -49.5589 -49.5586
   -49.3998 -49.3964 -49.3963 -49.3962 -49.3931 -49.3928 -49.3925 -49.3893
    -5.8113  -5.0040  -4.9489  -4.6251  -4.6251  -4.1418  -3.7991  -3.7990
    -3.7734  -3.7733  -3.7455  -2.9600  -2.9599  -2.8676  -2.4960  -2.4959
    -2.2082  -1.8013  -1.5343  -1.5342  -1.4060  -1.1276  -0.9397  -0.9395
    -0.7450  -0.6725  -0.5245  -0.1758  -0.1757   0.0542

     occupation numbers 
     1.0000   1.0000   1.0000   1.0000   1.0000   1.0000   1.0000   1.0000
     1.0000   1.0000   1.0000   1.0000   1.0000   1.0000   1.0000   1.0000
     1.0000   1.0000   1.0000   1.0000   1.0000   1.0000   1.0000   1.0000
     1.0000   1.0000   1.0000   1.0000   1.0000   1.0000   1.0000   1.0000
     1.0000   1.0000   1.0000   0.7068   0.7066   0.2407   0.0000   0.0000
     0.0000   0.0000   0.0000   0.0000   0.0000   0.0000   0.0000   0.0000
     0.0000   0.0000   0.0000   0.0000   0.0000   0.0000

          k = 0.3636 0.0875 0.0000 (221868 PWs)   bands (ev):

   -50.4252 -50.4250 -50.4248 -50.4248 -50.4219 -50.4217 -50.4215 -50.4215
   -49.5626 -49.5623 -49.5623 -49.5620 -49.5591 -49.5589 -49.5589 -49.5586
   -49.3997 -49.3971 -49.3963 -49.3955 -49.3937 -49.3926 -49.3922 -49.3894
    -5.7871  -4.9796  -4.9370  -4.9248  -4.3020  -4.1177  -4.0819  -4.0686
    -3.7208  -3.4634  -3.4553  -3.2198  -2.8420  -2.7768  -2.6350  -2.1873
    -2.1849  -1.9901  -1.8418  -1.3883  -1.2116  -1.1681  -1.1295  -1.0079
    -0.8460  -0.7493  -0.4875  -0.4606  -0.0877   0.1061

     occupation numbers 
     1.0000   1.0000   1.0000   1.0000   1.0000   1.0000   1.0000   1.0000
     1.0000   1.0000   1.0000   1.0000   1.0000   1.0000   1.0000   1.0000
     1.0000   1.0000   1.0000   1.0000   1.0000   1.0000   1.0000   1.0000
     1.0000   1.0000   1.0000   1.0000   1.0000   1.0000   1.0000   1.0000
     1.0000   1.0000   1.0000   1.0180   0.1550   0.0376   0.0004   0.0000
     0.0000   0.0000   0.0000   0.0000   0.0000   0.0000   0.0000   0.0000
     0.0000   0.0000   0.0000   0.0000   0.0000   0.0000

          k = 0.3636 0.1750 0.0000 (221891 PWs)   bands (ev):

   -50.4252 -50.4250 -50.4248 -50.4248 -50.4219 -50.4217 -50.4215 -50.4215
   -49.5625 -49.5624 -49.5622 -49.5620 -49.5591 -49.5590 -49.5589 -49.5586
   -49.3995 -49.3979 -49.3960 -49.3947 -49.3944 -49.3929 -49.3914 -49.3897
    -5.7142  -5.2037  -4.9067  -4.8524  -4.4062  -4.3459  -4.0458  -3.8212
    -3.6470  -3.5544  -3.2402  -2.9756  -2.8593  -2.7658  -2.4152  -2.3880
    -2.1218  -1.9787  -1.9500  -1.5676  -1.5524  -1.2842  -1.1817  -0.8677
    -0.8233  -0.7672  -0.6584  -0.6547  -0.1581  -0.0717

     occupation numbers 
     1.0000   1.0000   1.0000   1.0000   1.0000   1.0000   1.0000   1.0000
     1.0000   1.0000   1.0000   1.0000   1.0000   1.0000   1.0000   1.0000
     1.0000   1.0000   1.0000   1.0000   1.0000   1.0000   1.0000   1.0000
     1.0000   1.0000   1.0000   1.0000   1.0000   1.0000   1.0000   1.0000
     1.0000   1.0000   1.0113   0.7882   0.2101   0.0284   0.0000   0.0000
     0.0000   0.0000   0.0000   0.0000   0.0000   0.0000   0.0000   0.0000
     0.0000   0.0000   0.0000   0.0000   0.0000   0.0000

          k = 0.3636 0.2624 0.0000 (221911 PWs)   bands (ev):

   -50.4252 -50.4250 -50.4248 -50.4248 -50.4219 -50.4217 -50.4215 -50.4215
   -49.5625 -49.5624 -49.5622 -49.5620 -49.5590 -49.5590 -49.5589 -49.5586
   -49.3991 -49.3985 -49.3957 -49.3951 -49.3940 -49.3933 -49.3908 -49.3901
    -5.5926  -5.4224  -4.7854  -4.7317  -4.6168  -4.5628  -3.9262  -3.7605
    -3.5262  -3.3803  -3.3658  -2.9002  -2.6425  -2.5476  -2.5051  -2.4679
    -2.0495  -2.0422  -2.0259  -1.9326  -1.6938  -1.3122  -1.0743  -0.9593
    -0.9425  -0.7920  -0.6948  -0.5160  -0.3172  -0.1128

     occupation numbers 
     1.0000   1.0000   1.0000   1.0000   1.0000   1.0000   1.0000   1.0000
     1.0000   1.0000   1.0000   1.0000   1.0000   1.0000   1.0000   1.0000
     1.0000   1.0000   1.0000   1.0000   1.0000   1.0000   1.0000   1.0000
     1.0000   1.0000   1.0000   1.0000   1.0000   1.0000   1.0000   1.0000
     1.0000   1.0001   1.0002   0.3847   0.0005   0.0000   0.0000   0.0000
     0.0000   0.0000   0.0000   0.0000   0.0000   0.0000   0.0000   0.0000
     0.0000   0.0000   0.0000   0.0000   0.0000   0.0000

          k = 0.4545 0.0000 0.0000 (221854 PWs)   bands (ev):

   -50.4241 -50.4239 -50.4237 -50.4237 -50.4230 -50.4228 -50.4226 -50.4226
   -49.5614 -49.5612 -49.5612 -49.5608 -49.5602 -49.5600 -49.5600 -49.5597
   -49.3987 -49.3975 -49.3953 -49.3951 -49.3942 -49.3939 -49.3914 -49.3904
    -5.5757  -5.2881  -4.7663  -4.4782  -4.3880  -4.3880  -4.1027  -4.1026
    -3.5607  -3.5607  -3.4974  -3.2781  -3.2780  -3.2018  -2.2191  -2.2190
    -1.9568  -1.8926  -1.8925  -1.6730  -1.4926  -1.1161  -0.8304  -0.7094
    -0.7092  -0.4953  -0.4466  -0.4464  -0.4378  -0.0635

     occupation numbers 
     1.0000   1.0000   1.0000   1.0000   1.0000   1.0000   1.0000   1.0000
     1.0000   1.0000   1.0000   1.0000   1.0000   1.0000   1.0000   1.0000
     1.0000   1.0000   1.0000   1.0000   1.0000   1.0000   1.0000   1.0000
     1.0000   1.0000   1.0000   1.0000   1.0000   1.0000   1.0000   1.0000
     1.0000   1.0000   1.0000   1.0041   1.0042   1.0260   0.0000   0.0000
     0.0000   0.0000   0.0000   0.0000   0.0000   0.0000   0.0000   0.0000
     0.0000   0.0000   0.0000   0.0000   0.0000   0.0000

          k = 0.4545 0.0875 0.0000 (221817 PWs)   bands (ev):

   -50.4241 -50.4239 -50.4237 -50.4237 -50.4230 -50.4228 -50.4226 -50.4226
   -49.5614 -49.5612 -49.5611 -49.5608 -49.5602 -49.5601 -49.5600 -49.5597
   -49.3986 -49.3974 -49.3960 -49.3949 -49.3944 -49.3933 -49.3915 -49.3904
    -5.5514  -5.2638  -4.7420  -4.7004  -4.4539  -4.4144  -4.0645  -3.8297
    -3.7803  -3.5445  -3.4724  -3.2251  -3.1765  -2.9449  -2.5082  -2.1912
    -1.9360  -1.8924  -1.6992  -1.6534  -1.5455  -1.3546  -0.9225  -0.9034
    -0.6925  -0.5894  -0.5282  -0.4967  -0.3731  -0.2031

     occupation numbers 
     1.0000   1.0000   1.0000   1.0000   1.0000   1.0000   1.0000   1.0000
     1.0000   1.0000   1.0000   1.0000   1.0000   1.0000   1.0000   1.0000
     1.0000   1.0000   1.0000   1.0000   1.0000   1.0000   1.0000   1.0000
     1.0000   1.0000   1.0000   1.0000   1.0000   1.0000   1.0000   1.0000
     1.0000   1.0000   1.0000   1.0160   1.0406   0.6242   0.0000   0.0000
     0.0000   0.0000   0.0000   0.0000   0.0000   0.0000   0.0000   0.0000
     0.0000   0.0000   0.0000   0.0000   0.0000   0.0000

          k = 0.4545 0.1750 0.0000 (221898 PWs)   bands (ev):

   -50.4241 -50.4239 -50.4237 -50.4237 -50.4230 -50.4228 -50.4226 -50.4226
   -49.5614 -49.5613 -49.5611 -49.5608 -49.5602 -49.5601 -49.5600 -49.5597
   -49.3983 -49.3972 -49.3967 -49.3956 -49.3936 -49.3925 -49.3918 -49.3907
    -5.4784  -5.1910  -4.9675  -4.6809  -4.6690  -4.3812  -4.1685  -3.8830
    -3.5807  -3.3978  -3.2955  -3.1010  -2.9954  -2.7073  -2.6009  -2.2998
    -2.1533  -1.8612  -1.8539  -1.6413  -1.5615  -1.2876  -1.2652  -0.9932
    -0.9804  -0.8009  -0.6177  -0.3890  -0.3654  -0.0721

     occupation numbers 
     1.0000   1.0000   1.0000   1.0000   1.0000   1.0000   1.0000   1.0000
     1.0000   1.0000   1.0000   1.0000   1.0000   1.0000   1.0000   1.0000
     1.0000   1.0000   1.0000   1.0000   1.0000   1.0000   1.0000   1.0000
     1.0000   1.0000   1.0000   1.0000   1.0000   1.0000   1.0000   1.0000
     1.0000   1.0001   1.0025   1.0830   0.8814   0.0051   0.0001   0.0000
     0.0000   0.0000   0.0000   0.0000   0.0000   0.0000   0.0000   0.0000
     0.0000   0.0000   0.0000   0.0000   0.0000   0.0000

          k = 0.4545 0.2624 0.0000 (221919 PWs)   bands (ev):

   -50.4241 -50.4239 -50.4237 -50.4237 -50.4230 -50.4228 -50.4226 -50.4226
   -49.5614 -49.5613 -49.5611 -49.5608 -49.5602 -49.5601 -49.5600 -49.5597
   -49.3980 -49.3974 -49.3968 -49.3962 -49.3929 -49.3923 -49.3918 -49.3912
    -5.3568  -5.1864  -5.0695  -4.8995  -4.5477  -4.3790  -4.2603  -4.0924
    -3.2759  -3.1380  -3.1131  -2.9781  -2.8548  -2.8115  -2.6499  -2.3591
    -2.2530  -1.9679  -1.7866  -1.7536  -1.6452  -1.5128  -1.4318  -1.3089
    -0.7322  -0.5364  -0.5111  -0.4233  -0.2761  -0.2689

     occupation numbers 
     1.0000   1.0000   1.0000   1.0000   1.0000   1.0000   1.0000   1.0000
     1.0000   1.0000   1.0000   1.0000   1.0000   1.0000   1.0000   1.0000
     1.0000   1.0000   1.0000   1.0000   1.0000   1.0000   1.0000   1.0000
     1.0000   1.0000   1.0000   1.0000   1.0000   1.0000   1.0000   1.0000
     1.0044   1.0666   1.0799   0.8009   0.1949   0.0843   0.0007   0.0000
     0.0000   0.0000   0.0000   0.0000   0.0000   0.0000   0.0000   0.0000
     0.0000   0.0000   0.0000   0.0000   0.0000   0.0000

     the Fermi energy is    -2.9034 ev

!    total energy              =    -360.77970722 Ry
     total all-electron energy =      -360.779902 Ry
     estimated scf accuracy    <          5.5E-09 Ry

!    total charge of GC-SCF    =       0.80642880 e
     smearing contrib. (-TS)   =      -0.00099156 Ry
     internal energy E=F+TS    =    -360.77871566 Ry

     The total energy is F=E-TS. E is the sum of the following terms:
     one-electron contribution =   -3362.47968932 Ry
     hartree contribution      =    1641.26526121 Ry
     xc contribution           =     -85.60361479 Ry
     ewald contribution        =    1463.72282713 Ry
     one-center paw contrib.   =       2.11734483 Ry
      -> PAW hartree energy AE =       7.27942843 Ry
      -> PAW hartree energy PS =      -7.05654097 Ry
      -> PAW xc energy AE      =      -3.45883431 Ry
      -> PAW xc energy PS      =       3.32422658 Ry
      -> total E_H with PAW    =    1641.48814868 Ry
      -> total E_XC with PAW   =     -85.73822251 Ry
     pot.stat. contrib. (-muN) =      -0.17212422 Ry
     electrostatic embedding   =      -0.13032739 Ry
     cavitation energy         =       0.02545705 Ry
     electrolyte free energy   =      -0.00306320 Ry
     correction to one-el term =     -19.52078697 Ry

     WARNING: you are using the parabolic pbc correction;
              the potential shift above must be added to 
              band and Fermi energies.

     convergence has been achieved in  25 iterations
     The dielectric solvent contribution to forces
     atom    1 type  1   force =    -0.00018438    0.00000010    0.02274552
     atom    2 type  1   force =     0.00018207    0.00004460   -0.02274800
     atom    3 type  1   force =    -0.00015171   -0.00000003   -0.00658385
     atom    4 type  1   force =    -0.00005911    0.00000543   -0.00448396
     atom    5 type  1   force =     0.00005950    0.00000001    0.00447129
     atom    6 type  1   force =     0.00015344    0.00000077    0.00655618
     atom    7 type  1   force =    -0.00018378    0.00000008    0.02274952
     atom    8 type  1   force =     0.00018207   -0.00004441   -0.02274798
     atom    9 type  1   force =    -0.00015437   -0.00000002   -0.00654905
     atom   10 type  1   force =    -0.00005911   -0.00000542   -0.00448395
     atom   11 type  1   force =     0.00005888   -0.00000000    0.00447761
     atom   12 type  1   force =     0.00015344   -0.00000081    0.00655620
     atom   13 type  1   force =    -0.00017766    0.00000010    0.02274386
     atom   14 type  1   force =     0.00018013    0.00004825   -0.02274760
     atom   15 type  1   force =    -0.00015398   -0.00000003   -0.00658286
     atom   16 type  1   force =    -0.00005915    0.00000452   -0.00448381
     atom   17 type  1   force =     0.00005879    0.00000001    0.00447124
     atom   18 type  1   force =     0.00015264    0.00000069    0.00655452
     atom   19 type  1   force =    -0.00017845    0.00000008    0.02274801
     atom   20 type  1   force =     0.00018013   -0.00004806   -0.02274758
     atom   21 type  1   force =    -0.00015193   -0.00000002   -0.00654877
     atom   22 type  1   force =    -0.00005915   -0.00000451   -0.00448380
     atom   23 type  1   force =     0.00005909   -0.00000000    0.00447691
     atom   24 type  1   force =     0.00015264   -0.00000074    0.00655453


     Forces acting on atoms (cartesian axes, Ry/au):

     atom    1 type  1   force =     0.00005089    0.00000000   -0.00223827
     atom    2 type  1   force =    -0.00006336    0.00000796    0.00221079
     atom    3 type  1   force =    -0.00005413    0.00000000   -0.00172659
     atom    4 type  1   force =    -0.00012692   -0.00002412    0.00039139
     atom    5 type  1   force =     0.00011922    0.00000000   -0.00033315
     atom    6 type  1   force =     0.00007792    0.00000428    0.00169355
     atom    7 type  1   force =     0.00004108    0.00000000   -0.00222636
     atom    8 type  1   force =    -0.00006336   -0.00000796    0.00221079
     atom    9 type  1   force =    -0.00007682    0.00000000   -0.00165776
     atom   10 type  1   force =    -0.00012692    0.00002412    0.00039139
     atom   11 type  1   force =     0.00011207    0.00000000   -0.00040862
     atom   12 type  1   force =     0.00007792   -0.00000428    0.00169355
     atom   13 type  1   force =     0.00011236    0.00000000   -0.00223729
     atom   14 type  1   force =    -0.00009163    0.00001131    0.00221004
     atom   15 type  1   force =    -0.00006400    0.00000000   -0.00172136
     atom   16 type  1   force =    -0.00013334   -0.00003533    0.00038778
     atom   17 type  1   force =     0.00013148    0.00000000   -0.00033715
     atom   18 type  1   force =     0.00003419   -0.00000153    0.00167996
     atom   19 type  1   force =     0.00011318    0.00000000   -0.00222179
     atom   20 type  1   force =    -0.00009163   -0.00001131    0.00221004
     atom   21 type  1   force =    -0.00002207    0.00000000   -0.00165173
     atom   22 type  1   force =    -0.00013334    0.00003533    0.00038778
     atom   23 type  1   force =     0.00014304    0.00000000   -0.00038694
     atom   24 type  1   force =     0.00003419    0.00000153    0.00167996
     The non-local contrib.  to forces
     atom    1 type  1   force =     0.00042615    0.00000000    0.09641952
     atom    2 type  1   force =    -0.00044990    0.00004019   -0.09644101
     atom    3 type  1   force =     0.00079512    0.00000000   -0.01448414
     atom    4 type  1   force =     0.00040144   -0.00002960   -0.00325841
     atom    5 type  1   force =    -0.00038851    0.00000000    0.00333912
     atom    6 type  1   force =    -0.00076881    0.00001107    0.01442859
     atom    7 type  1   force =     0.00043506    0.00000000    0.09643803
     atom    8 type  1   force =    -0.00044990   -0.00004019   -0.09644101
     atom    9 type  1   force =     0.00074703    0.00000000   -0.01436650
     atom   10 type  1   force =     0.00040144    0.00002960   -0.00325841
     atom   11 type  1   force =    -0.00040499    0.00000000    0.00323336
     atom   12 type  1   force =    -0.00076881   -0.00001107    0.01442859
     atom   13 type  1   force =     0.00048403    0.00000000    0.09642380
     atom   14 type  1   force =    -0.00047103    0.00006037   -0.09644629
     atom   15 type  1   force =     0.00077782    0.00000000   -0.01447040
     atom   16 type  1   force =     0.00039052   -0.00005140   -0.00327054
     atom   17 type  1   force =    -0.00038817    0.00000000    0.00333513
     atom   18 type  1   force =    -0.00079608    0.00000691    0.01440152
     atom   19 type  1   force =     0.00048538    0.00000000    0.09644268
     atom   20 type  1   force =    -0.00047103   -0.00006037   -0.09644629
     atom   21 type  1   force =     0.00080097    0.00000000   -0.01435292
     atom   22 type  1   force =     0.00039052    0.00005140   -0.00327054
     atom   23 type  1   force =    -0.00037964    0.00000000    0.00325979
     atom   24 type  1   force =    -0.00079608   -0.00000691    0.01440152
     The ionic contribution  to forces
     atom    1 type  1   force =    -0.00134507   -0.00000002    8.56387132
     atom    2 type  1   force =     0.00110284    0.00041758   -8.56395122
     atom    3 type  1   force =    -0.00211567    0.00000001   -5.24292493
     atom    4 type  1   force =    -0.00236227   -0.00083239   -2.03259649
     atom    5 type  1   force =     0.00239327   -0.00000002    2.03252526
     atom    6 type  1   force =     0.00255948   -0.00004804    5.24320659
     atom    7 type  1   force =    -0.00139913    0.00000004    8.56389474
     atom    8 type  1   force =     0.00110284   -0.00041759   -8.56395115
     atom    9 type  1   force =    -0.00271139    0.00000002   -5.24353178
     atom   10 type  1   force =    -0.00236226    0.00083236   -2.03259641
     atom   11 type  1   force =     0.00219272    0.00000004    2.03278502
     atom   12 type  1   force =     0.00255948    0.00004802    5.24320679
     atom   13 type  1   force =    -0.00038662   -0.00000002    8.56386133
     atom   14 type  1   force =     0.00070863    0.00056994   -8.56402101
     atom   15 type  1   force =    -0.00242449    0.00000001   -5.24297476
     atom   16 type  1   force =    -0.00250464   -0.00114479   -2.03255296
     atom   17 type  1   force =     0.00237848   -0.00000002    2.03261692
     atom   18 type  1   force =     0.00193054   -0.00015554    5.24327318
     atom   19 type  1   force =    -0.00041495    0.00000004    8.56393163
     atom   20 type  1   force =     0.00070864   -0.00056996   -8.56402093
     atom   21 type  1   force =    -0.00165250    0.00000002   -5.24331713
     atom   22 type  1   force =    -0.00250464    0.00114477   -2.03255289
[...]
     atom   12 type  1   force =     0.00014954    0.00001020    0.00445106
     atom   13 type  1   force =    -0.00017288    0.00000009    0.01945766
     atom   14 type  1   force =     0.00016805    0.00001071   -0.01944692
     atom   15 type  1   force =    -0.00014777   -0.00000003   -0.00446771
     atom   16 type  1   force =    -0.00004491   -0.00000175   -0.00341121
     atom   17 type  1   force =     0.00004546    0.00000001    0.00340800
     atom   18 type  1   force =     0.00015052   -0.00000986    0.00445558
     atom   19 type  1   force =    -0.00017133    0.00000007    0.01948123
     atom   20 type  1   force =     0.00016805   -0.00001053   -0.01944690
     atom   21 type  1   force =    -0.00015102   -0.00000002   -0.00445131
     atom   22 type  1   force =    -0.00004491    0.00000175   -0.00341120
     atom   23 type  1   force =     0.00004465    0.00000000    0.00341756
     atom   24 type  1   force =     0.00015052    0.00000982    0.00445560


     Forces acting on atoms (cartesian axes, Ry/au):

     atom    1 type  1   force =    -0.00005207    0.00000000    0.00019381
     atom    2 type  1   force =     0.00009837    0.00000428   -0.00022256
     atom    3 type  1   force =    -0.00007477    0.00000000   -0.00023507
     atom    4 type  1   force =    -0.00017955   -0.00003284    0.00003985
     atom    5 type  1   force =     0.00018393    0.00000000   -0.00002583
     atom    6 type  1   force =     0.00003237   -0.00005507    0.00021942
     atom    7 type  1   force =    -0.00004999    0.00000000    0.00013222
     atom    8 type  1   force =     0.00009837   -0.00000428   -0.00022256
     atom    9 type  1   force =    -0.00002431    0.00000000   -0.00022235
     atom   10 type  1   force =    -0.00017955    0.00003284    0.00003985
     atom   11 type  1   force =     0.00019285    0.00000000    0.00006896
     atom   12 type  1   force =     0.00003237    0.00005507    0.00021942
     atom   13 type  1   force =    -0.00018269    0.00000000    0.00020045
     atom   14 type  1   force =     0.00015358   -0.00000241   -0.00022085
     atom   15 type  1   force =    -0.00006886    0.00000000   -0.00024056
     atom   16 type  1   force =    -0.00017783   -0.00001208    0.00004227
     atom   17 type  1   force =     0.00014734    0.00000000   -0.00001148
     atom   18 type  1   force =     0.00010900   -0.00005083    0.00024964
     atom   19 type  1   force =    -0.00019115    0.00000000    0.00012375
     atom   20 type  1   force =     0.00015358    0.00000241   -0.00022085
     atom   21 type  1   force =    -0.00009187    0.00000000   -0.00023827
     atom   22 type  1   force =    -0.00017783    0.00001208    0.00004227
     atom   23 type  1   force =     0.00013970    0.00000000    0.00003885
     atom   24 type  1   force =     0.00010900    0.00005083    0.00024964
     The non-local contrib.  to forces
     atom    1 type  1   force =     0.00085669    0.00000000    0.09424933
     atom    2 type  1   force =    -0.00082903    0.00001211   -0.09424078
     atom    3 type  1   force =     0.00129894    0.00000000   -0.01353012
     atom    4 type  1   force =     0.00005781   -0.00002477   -0.00248679
     atom    5 type  1   force =    -0.00004271    0.00000000    0.00248930
     atom    6 type  1   force =    -0.00132599   -0.00008016    0.01349241
     atom    7 type  1   force =     0.00084242    0.00000000    0.09418172
     atom    8 type  1   force =    -0.00082903   -0.00001211   -0.09424078
     atom    9 type  1   force =     0.00133053    0.00000000   -0.01351934
     atom   10 type  1   force =     0.00005781    0.00002477   -0.00248679
     atom   11 type  1   force =    -0.00002567    0.00000000    0.00257995
     atom   12 type  1   force =    -0.00132599    0.00008016    0.01349241
     atom   13 type  1   force =     0.00073257    0.00000000    0.09423838
     atom   14 type  1   force =    -0.00077542   -0.00001087   -0.09423117
     atom   15 type  1   force =     0.00132071    0.00000000   -0.01355588
     atom   16 type  1   force =     0.00007201   -0.00000116   -0.00247320
     atom   17 type  1   force =    -0.00004930    0.00000000    0.00249382
     atom   18 type  1   force =    -0.00128624   -0.00007818    0.01354681
     atom   19 type  1   force =     0.00073102    0.00000000    0.09417372
     atom   20 type  1   force =    -0.00077542    0.00001087   -0.09423117
     atom   21 type  1   force =     0.00125814    0.00000000   -0.01354471
     atom   22 type  1   force =     0.00007201    0.00000116   -0.00247320
     atom   23 type  1   force =    -0.00006880    0.00000000    0.00254632
     atom   24 type  1   force =    -0.00128624    0.00007818    0.01354681
     The ionic contribution  to forces
     atom    1 type  1   force =    -0.00212917   -0.00000002    8.53623548
     atom    2 type  1   force =     0.00279743   -0.00004368   -8.53578019
     atom    3 type  1   force =    -0.00439661    0.00000001   -5.39785643
     atom    4 type  1   force =    -0.00107639   -0.00130027   -1.90858725
     atom    5 type  1   force =     0.00097402   -0.00000002    1.90897543
     atom    6 type  1   force =     0.00371863   -0.00231895    5.39737090
     atom    7 type  1   force =    -0.00213063    0.00000004    8.53520806
     atom    8 type  1   force =     0.00279743    0.00004366   -8.53578012
     atom    9 type  1   force =    -0.00345083    0.00000002   -5.39723966
     atom   10 type  1   force =    -0.00107639    0.00130025   -1.90858717
     atom   11 type  1   force =     0.00124201    0.00000004    1.90873193
     atom   12 type  1   force =     0.00371864    0.00231893    5.39737110
     atom   13 type  1   force =    -0.00416894   -0.00000002    8.53607921
     atom   14 type  1   force =     0.00365659   -0.00026287   -8.53572018
     atom   15 type  1   force =    -0.00410922    0.00000001   -5.39802999
     atom   16 type  1   force =    -0.00102529   -0.00085380   -1.90860106
     atom   17 type  1   force =     0.00087837   -0.00000002    1.90889205
     atom   18 type  1   force =     0.00474945   -0.00222897    5.39725519
     atom   19 type  1   force =    -0.00418182    0.00000004    8.53521315
     atom   20 type  1   force =     0.00365660    0.00026285   -8.53572009
     atom   21 type  1   force =    -0.00480157    0.00000002   -5.39725682
     atom   22 type  1   force =    -0.00102529    0.00085377   -1.90860098
     atom   23 type  1   force =     0.00063353    0.00000004    1.90917204
     atom   24 type  1   force =     0.00474945    0.00222894    5.39725540
     The local contribution  to forces
     atom    1 type  1   force =     0.00137834   -0.00004244   -8.64974503
     atom    2 type  1   force =    -0.00203364   -0.00002382    8.64924611
     atom    3 type  1   force =     0.00317462   -0.00004366    5.41561706
     atom    4 type  1   force =     0.00087900    0.00125101    1.91452629
     atom    5 type  1   force =    -0.00079189   -0.00004497   -1.91489809
     atom    6 type  1   force =    -0.00251195    0.00231083   -5.41509392
     atom    7 type  1   force =     0.00139784   -0.00004385   -8.64873467
     atom    8 type  1   force =    -0.00203132   -0.00006694    8.64924251
     atom    9 type  1   force =     0.00224485   -0.00004447    5.41498929
     atom   10 type  1   force =     0.00088946   -0.00133980    1.91452386
     atom   11 type  1   force =    -0.00106904   -0.00004172   -1.91465967
     atom   12 type  1   force =    -0.00250789   -0.00239756   -5.41509879
     atom   13 type  1   force =     0.00342599   -0.00004244   -8.64957383
     atom   14 type  1   force =    -0.00289670    0.00021528    8.64917869
     atom   15 type  1   force =     0.00286755   -0.00004366    5.41581464
     atom   16 type  1   force =     0.00081553    0.00080021    1.91452935
     atom   17 type  1   force =    -0.00072754   -0.00004497   -1.91480580
     atom   18 type  1   force =    -0.00350683    0.00222274   -5.41500707
     atom   19 type  1   force =     0.00343052   -0.00004385   -8.64874354
     atom   20 type  1   force =    -0.00289380   -0.00030603    8.64917448
     atom   21 type  1   force =     0.00360268   -0.00004447    5.41501580
     atom   22 type  1   force =     0.00082598   -0.00088899    1.91452693
     atom   23 type  1   force =    -0.00047007   -0.00004172   -1.91509747
     atom   24 type  1   force =    -0.00350276   -0.00230948   -5.41501195
     The core correction contribution to forces
     atom    1 type  1   force =     0.00000000    0.00000000    0.00000000
     atom    2 type  1   force =     0.00000000    0.00000000    0.00000000
     atom    3 type  1   force =     0.00000000    0.00000000    0.00000000
     atom    4 type  1   force =     0.00000000    0.00000000    0.00000000
     atom    5 type  1   force =     0.00000000    0.00000000    0.00000000
     atom    6 type  1   force =     0.00000000    0.00000000    0.00000000
     atom    7 type  1   force =     0.00000000    0.00000000    0.00000000
     atom    8 type  1   force =     0.00000000    0.00000000    0.00000000
     atom    9 type  1   force =     0.00000000    0.00000000    0.00000000
     atom   10 type  1   force =     0.00000000    0.00000000    0.00000000
     atom   11 type  1   force =     0.00000000    0.00000000    0.00000000
     atom   12 type  1   force =     0.00000000    0.00000000    0.00000000
     atom   13 type  1   force =     0.00000000    0.00000000    0.00000000
     atom   14 type  1   force =     0.00000000    0.00000000    0.00000000
     atom   15 type  1   force =     0.00000000    0.00000000    0.00000000
     atom   16 type  1   force =     0.00000000    0.00000000    0.00000000
     atom   17 type  1   force =     0.00000000    0.00000000    0.00000000
     atom   18 type  1   force =     0.00000000    0.00000000    0.00000000
     atom   19 type  1   force =     0.00000000    0.00000000    0.00000000
     atom   20 type  1   force =     0.00000000    0.00000000    0.00000000
     atom   21 type  1   force =     0.00000000    0.00000000    0.00000000
     atom   22 type  1   force =     0.00000000    0.00000000    0.00000000
     atom   23 type  1   force =     0.00000000    0.00000000    0.00000000
     atom   24 type  1   force =     0.00000000    0.00000000    0.00000000
     The Hubbard contrib.    to forces
     atom    1 type  1   force =     0.00000000    0.00000000    0.00000000
     atom    2 type  1   force =     0.00000000    0.00000000    0.00000000
     atom    3 type  1   force =     0.00000000    0.00000000    0.00000000
     atom    4 type  1   force =     0.00000000    0.00000000    0.00000000
     atom    5 type  1   force =     0.00000000    0.00000000    0.00000000
     atom    6 type  1   force =     0.00000000    0.00000000    0.00000000
     atom    7 type  1   force =     0.00000000    0.00000000    0.00000000
     atom    8 type  1   force =     0.00000000    0.00000000    0.00000000
     atom    9 type  1   force =     0.00000000    0.00000000    0.00000000
     atom   10 type  1   force =     0.00000000    0.00000000    0.00000000
     atom   11 type  1   force =     0.00000000    0.00000000    0.00000000
     atom   12 type  1   force =     0.00000000    0.00000000    0.00000000
     atom   13 type  1   force =     0.00000000    0.00000000    0.00000000
     atom   14 type  1   force =     0.00000000    0.00000000    0.00000000
     atom   15 type  1   force =     0.00000000    0.00000000    0.00000000
     atom   16 type  1   force =     0.00000000    0.00000000    0.00000000
     atom   17 type  1   force =     0.00000000    0.00000000    0.00000000
     atom   18 type  1   force =     0.00000000    0.00000000    0.00000000
     atom   19 type  1   force =     0.00000000    0.00000000    0.00000000
     atom   20 type  1   force =     0.00000000    0.00000000    0.00000000
     atom   21 type  1   force =     0.00000000    0.00000000    0.00000000
     atom   22 type  1   force =     0.00000000    0.00000000    0.00000000
     atom   23 type  1   force =     0.00000000    0.00000000    0.00000000
     atom   24 type  1   force =     0.00000000    0.00000000    0.00000000
     The SCF correction term to forces
     atom    1 type  1   force =     0.00000050   -0.00000000   -0.00000092
     atom    2 type  1   force =    -0.00000041    0.00000008    0.00000086
     atom    3 type  1   force =    -0.00000009   -0.00000000   -0.00000150
     atom    4 type  1   force =    -0.00000039    0.00000001   -0.00000040
     atom    5 type  1   force =     0.00000039   -0.00000000    0.00000040
     atom    6 type  1   force =     0.00000012    0.00000006    0.00000133
     atom    7 type  1   force =     0.00000054    0.00000000   -0.00000081
     atom    8 type  1   force =    -0.00000041   -0.00000008    0.00000086
     atom    9 type  1   force =    -0.00000011    0.00000000   -0.00000124
     atom   10 type  1   force =    -0.00000039   -0.00000001   -0.00000040
     atom   11 type  1   force =     0.00000042    0.00000000    0.00000045
     atom   12 type  1   force =     0.00000012   -0.00000006    0.00000133
     atom   13 type  1   force =     0.00000059   -0.00000000   -0.00000094
     atom   14 type  1   force =    -0.00000038    0.00000005    0.00000080
     atom   15 type  1   force =    -0.00000011   -0.00000000   -0.00000160
     atom   16 type  1   force =    -0.00000038    0.00000001   -0.00000041
     atom   17 type  1   force =     0.00000039   -0.00000000    0.00000047
     atom   18 type  1   force =     0.00000009    0.00000004    0.00000149
     atom   19 type  1   force =     0.00000048   -0.00000000   -0.00000079
     atom   20 type  1   force =    -0.00000038   -0.00000005    0.00000080
     atom   21 type  1   force =    -0.00000007    0.00000000   -0.00000121
     atom   22 type  1   force =    -0.00000038   -0.00000001   -0.00000041
     atom   23 type  1   force =     0.00000042    0.00000000    0.00000042
     atom   24 type  1   force =     0.00000009   -0.00000004    0.00000149

     Total force =     0.001096     Total SCF correction =     0.000005
     Energy error            =      1.2E-06 Ry
     Gradient error          =      2.5E-04 Ry/Bohr

     bfgs converged in  27 scf cycles and  26 bfgs steps
     (criteria: energy <  1.0E-05 Ry, force <  3.9E-04 Ry/Bohr)

     End of BFGS Geometry Optimization

     Final energy             =    -360.7823580334 Ry

     File ./Li/Lithium.bfgs deleted, as requested
Begin final coordinates

ATOMIC_POSITIONS (angstrom)
Li               3.1351981980        4.8580445300       27.0061701175
Li               0.8307984283        2.4289163816       20.0406494334
Li               2.0397237639        4.8580445600       21.5036785573
Li               3.0238986086        2.4296082434       22.7651306227
Li               0.9427813946        4.8580445800       24.2807220135
Li               1.9272262536        2.4298132899       25.5425408084
Li               3.1352912940        9.7160883600       27.0070252130
Li               0.8307983883        7.2871727784       20.0406494934
Li               2.0392267458        9.7160883800       21.5035204932
Li               3.0238984286        7.2864808966       22.7651306627
Li               0.9426744217        9.7160883300       24.2798242755
Li               1.9272261836        7.2862758201       25.5425408883
Li               6.1113294515        4.8580445300       27.0060949887
Li               3.8052072219        2.4289800110       20.0406327353
Li               5.0146161337        4.8580445600       21.5037043508
Li               5.9988244686        2.4294004911       22.7651069846
Li               3.9180402221        4.8580445800       24.2805625864
Li               4.9014277048        2.4297877569       25.5422366624
Li               6.1115379611        9.7160883600       27.0071274009
Li               3.8052071719        7.2871091490       20.0406328053
Li               5.0148276035        9.7160883800       21.5036731721
Li               5.9988242886        7.2866886489       22.7651070246
Li               3.9180998403        9.7160883300       24.2801198596
Li               4.9014276348        7.2863013531       25.5422367424
End final coordinates



     Writing all to output data dir ./Li/Lithium.save/ :
     XML data file
     init_run     :     15.87s CPU     22.94s WALL (       1 calls)
     electrons    :   7378.44s CPU   9195.08s WALL (      27 calls)
     update_pot   :      3.15s CPU      3.85s WALL (      26 calls)
     forces       :    226.59s CPU    230.39s WALL (      27 calls)

     Called by init_run:
     wfcinit      :      1.14s CPU      1.59s WALL (       1 calls)
     wfcinit:wfcr :      1.05s CPU      1.50s WALL (      12 calls)
     potinit      :      0.67s CPU      0.74s WALL (       1 calls)
     hinit0       :      2.74s CPU      3.04s WALL (       1 calls)

     Called by electrons:
     c_bands      :   4353.78s CPU   5499.54s WALL (     550 calls)
     sum_band     :    311.54s CPU    422.23s WALL (     550 calls)
     v_of_rho     :     50.83s CPU     61.66s WALL (     551 calls)
     v_h          :      4.27s CPU      5.49s WALL (     551 calls)
     v_xc         :     46.55s CPU     56.15s WALL (     551 calls)
     newd         :     20.02s CPU     25.23s WALL (     551 calls)
     PAW_pot      :      4.56s CPU      6.43s WALL (     577 calls)
     mix_rho      :    119.49s CPU    153.52s WALL (     550 calls)

     Called by c_bands:
     init_us_2    :     45.91s CPU     47.66s WALL (   13848 calls)
     cegterg      :   4210.47s CPU   5202.58s WALL (    7669 calls)

     Called by sum_band:
     sum_band:wei :      0.68s CPU      0.84s WALL (     550 calls)
     sum_band:loo :    280.23s CPU    378.49s WALL (     550 calls)
     sum_band:buf :      4.26s CPU      4.64s WALL (    6600 calls)
     sum_band:ini :     21.60s CPU     21.81s WALL (    6600 calls)
     sum_band:cal :     44.18s CPU     51.41s WALL (    6912 calls)
     sum_band:bec :      0.53s CPU      0.58s WALL (    6912 calls)
     addusdens    :     17.67s CPU     18.59s WALL (     550 calls)
                                        0.00s GPU  (     550 calls)
     addusd:skk   :      3.39s CPU      3.44s WALL (     550 calls)
                                        0.00s GPU  (     550 calls)

     Called by *egterg:
     cdiaghg      :    922.40s CPU    961.77s WALL (  106114 calls)
     cegterg:over :    291.56s CPU    320.07s WALL (   99133 calls)
     cegterg:upda :    269.55s CPU    275.92s WALL (   99133 calls)
     cegterg:last :     67.08s CPU     67.59s WALL (   10549 calls)
     h_psi        :   2349.13s CPU   3252.41s WALL (  106814 calls)
     s_psi        :    204.18s CPU    208.14s WALL (  106814 calls)
     g_psi        :      4.08s CPU      4.22s WALL (   99133 calls)

     Called by h_psi:
     h_psi:calbec :    306.00s CPU    368.51s WALL (  106814 calls)
     vloc_psi     :   1811.42s CPU   2639.16s WALL (  106814 calls)
                                        0.00s GPU  (  106814 calls)
     add_vuspsi   :    217.94s CPU    230.11s WALL (  106814 calls)

     General routines
     calbec       :    356.73s CPU    427.11s WALL (  115022 calls)
     fft          :     33.25s CPU     48.96s WALL (    7215 calls)
     ffts         :     73.47s CPU     95.81s WALL (   62232 calls)
     fftw         :   1914.32s CPU   2795.51s WALL ( 3472484 calls)
     interpolate  :      4.25s CPU      5.61s WALL (     551 calls)

     Parallel routines

     PAW routines
     PAW_pot      :      4.56s CPU      6.43s WALL (     577 calls)
     PAW_symme    :      0.19s CPU      0.24s WALL (    1127 calls)

     Environ routines

     PWSCF        :      2h10m CPU      2h41m WALL


   This run was terminated on:  13:26:42   2Jan2025            

=------------------------------------------------------------------------------=
   JOB DONE.
=------------------------------------------------------------------------------=
