
     Program PWSCF v.7.4 starts on  5Jan2025 at  3:23:13 

     This program is part of the open-source Quantum ESPRESSO suite
     for quantum simulation of materials; please cite
         "P. Giannozzi et al., J. Phys.:Condens. Matter 21 395502 (2009);
         "P. Giannozzi et al., J. Phys.:Condens. Matter 29 465901 (2017);
         "P. Giannozzi et al., J. Chem. Phys. 152 154105 (2020);
          URL http://www.quantum-espresso.org", 
     in publications or presentations arising from this work. More details at
     http://www.quantum-espresso.org/quote

     Parallel version (MPI & OpenMP), running on     512 processor cores
     Number of MPI processes:               512
     Threads/MPI process:                     1

     MPI processes distributed on     4 nodes
     232341 MiB available memory on the printing compute node when the environment starts

     Reading input from espresso.pwi
Warning: card &CELL ignored
Warning: card    PRESS_CONV_THR   = 0.1 ignored
Warning: card    CELL_DOFREE      = 'ALL' ignored
Warning: card / ignored
Warning: card &FCP ignored
Warning: card / ignored
Warning: card &RISM ignored
Warning: card / ignored

     Current dimensions of program PWSCF are:
     Max number of different atomic species (ntypx) = 10
     Max number of k-points (npk) =  40000
     Max angular momentum in pseudopotentials (lmaxx) =  4

     IMPORTANT: XC functional enforced from input :
     Exchange-correlation= PBE
                           (   1   4   3   4   0   0   0)
     Any further DFT definition will be discarded
     Please, verify this is what you really want


     Reading input from environ.in:
     * using ionic solvent mode
     * setting boundary derivatives method to SSCS default
     * setting electrolyte-boundary derivatives method to SSCS default

Environ Warning (1001): card EOF ignored

     

     K-points division:     npool     =       2
     R & G space division:  proc/nbgrp/npool/nimage =     256
     Subspace diagonalization in iterative solution of the eigenvalue problem:
     a serial algorithm will be used


     Parallelization info
     --------------------
     sticks:   dense  smooth     PW     G-vecs:    dense   smooth      PW
     Min          39      15      4                23005     5783     788
     Max          40      16      5                23062     5870     851
     Sum       10033    4007   1075              5896473  1491071  208783

     Using Slab Decomposition



     bravais-lattice index     =           12
     lattice parameter (alat)  =      11.2436  a.u.
     unit-cell volume          =   15431.5264 (a.u.)^3
     number of atoms/cell      =           28
     number of atomic types    =            1
     number of electrons       =        84.00
     number of Kohn-Sham states=           63
     kinetic-energy cutoff     =      80.0000  Ry
     charge density cutoff     =     800.0000  Ry
     scf convergence threshold =      1.0E-06
     mixing beta               =       0.2000
     number of iterations used =            8  local-TF  mixing
     energy convergence thresh.=      1.0E-05
     force convergence thresh. =      3.9E-04
     Exchange-correlation= PBE
                           (   1   4   3   4   0   0   0)
     nstep                     =          999


     ================================================================================

                                  Environ Setup Summary

     ================================================================================

     Please cite

          O. Andreussi, I. Dabo and N. Marzari, J. Chem. Phys. 136, 064102 (2012)
          F. Nattino, M. Truscott, N. Marzari, and O. Andreussi, J. Chem. Phys. 150, 041722 (2019)

     in publications or presentations arising from this work.

     ================================================================================

     Parameters
     ==========

     compensation onset threshold      =               0.1000E+00
     static permittivity               =                    89.90
     surface tension in input (dyn/cm) =                    37.30
     surface tension in internal units =               0.4792E-04

     Solvent Boundary
     ================

     solvent mode                      =                    ionic
     derivatives method                =                   lowmem
     electrolyte derivatives method    =                   lowmem
     numerical core for derivatives    =                      fft
     switching function adopted        =                     SCCS
     density limit for vacuum region   =               0.5000E-02
     density limit for bulk solvent    =               0.1000E-03
     soft-sphere radius mode           =                    bondi
     soft-sphere softness              =                     0.50
     alpha                             =                     1.32

     Electrostatic Setup
     ===================

     electrostatic problem to solve    =                    modpb
     numerical solver adopted          =                   newton
     type of auxiliary density adopted =                     none
     numerical core for poisson        =                      fft
     adopting a nested solver scheme
     inner solver                      =                       cg
     inner core                        =                      fft
     type of pbc corrections           =                parabolic
     numerical core for corrections    =                      1da

     ================================================================================


     >>>>> Grand-Canonical SCF is activated <<<<<
     Initial Total Charge  =     0.000000 e
     Target Fermi Energy   =    -1.404000 eV
     Thr. of Fermi Energy  =     0.001000 eV
     Wave-shift of Kerker  =     0.400000 bohr^-1
     Wave-shift of Hartree =     1.500000 bohr^-1
     Mixing Rate of Fermi  =     0.050000

     celldm(1)=  11.243615  celldm(2)=   1.258306  celldm(3)=   8.704589
     celldm(4)=  -0.132454  celldm(5)=   0.000000  celldm(6)=   0.000000

     crystal axes: (cart. coord. in units of alat)
               a(1) = (   1.000000   0.000000   0.000000 )  
               a(2) = (  -0.166667   1.247219   0.000000 )  
               a(3) = (   0.000000   0.000000   8.704589 )  

     reciprocal axes: (cart. coord. in units 2 pi/alat)
               b(1) = (  1.000000  0.133631 -0.000000 )  
               b(2) = (  0.000000  0.801784  0.000000 )  
               b(3) = (  0.000000 -0.000000  0.114882 )  


     PseudoPot. # 1 for Li read from file:
     /work/e89/e89/ba3g18/Repos/Pseudopotentials/Pslibrary/Li.pbe-sl-kjpaw_psl.1.0.0.UPF
     MD5 check sum: 3f4d2cafebb47c6c3aa8ed472e6f074d
     Pseudo is Projector augmented-wave, Zval =  3.0
     Generated using 'atomic' code by A. Dal Corso  v.7.4
     Shape of augmentation charge: PSQ
     Using radial grid of 1017 points,  4 beta functions with: 
                l(1) =   0
                l(2) =   0
                l(3) =   1
                l(4) =   1
     Q(r) pseudized with 0 coefficients 


     atomic species   valence    mass     pseudopotential
     Li                3.00     6.94000     Li( 1.00)

     No symmetry found


                                    s                        frac. trans.

      isym =  1     identity                                     

 cryst.   s( 1) = (     1          0          0      )
                  (     0          1          0      )
                  (     0          0          1      )

 cart.    s( 1) = (  1.0000000  0.0000000  0.0000000 )
                  (  0.0000000  1.0000000  0.0000000 )
                  (  0.0000000  0.0000000  1.0000000 )


     point group C_1 (1)    
     there are  1 classes
     the character table:

       E    
A      1.00

     the symmetry operations in each class and the name of the first element:

     E        1
          identity                                               

   Cartesian axes

     site n.     atom                  positions (alat units)
         1        Li     tau(   1) = (   0.0499607  -0.0210034   5.3287169  )
         2        Li     tau(   2) = (  -0.0501073   0.8229274   3.3755727  )
         3        Li     tau(   3) = (   0.1381026   0.3635128   3.4712137  )
         4        Li     tau(   4) = (   0.1760594   1.1796064   3.6582268  )
         5        Li     tau(   5) = (   0.2785012   0.7049076   3.8145057  )
         6        Li     tau(   6) = (   0.0168113   0.2822375   3.9575171  )
         7        Li     tau(   7) = (  -0.0231508   1.0615354   4.1068668  )
         8        Li     tau(   8) = (   0.1660898   0.6300307   4.2961763  )
         9        Li     tau(   9) = (   0.3340887   0.1716852   4.4084918  )
        10        Li     tau(  10) = (   0.3566183   0.9873402   4.5979044  )
        11        Li     tau(  11) = (  -0.0166609   0.5195212   4.7471103  )
        12        Li     tau(  12) = (   0.2214957   0.0968890   4.8899196  )
        13        Li     tau(  13) = (   0.1572261   0.8694037   5.0465351  )
        14        Li     tau(  14) = (   0.3616340   0.4383302   5.2333629  )
        15        Li     tau(  15) = (   0.5499624  -0.0210035   5.3287168  )
        16        Li     tau(  16) = (   0.4498842   0.8229254   3.3755767  )
        17        Li     tau(  17) = (   0.6381039   0.3635098   3.4712125  )
        18        Li     tau(  18) = (   0.6760619   1.1796125   3.6582295  )
        19        Li     tau(  19) = (   0.7784908   0.7049026   3.8145137  )
        20        Li     tau(  20) = (   0.5168216   0.2822449   3.9575181  )
        21        Li     tau(  21) = (   0.4768508   1.0615353   4.1068684  )
        22        Li     tau(  22) = (   0.6660909   0.6300303   4.2961681  )
        23        Li     tau(  23) = (   0.8340884   0.1716846   4.4084908  )
        24        Li     tau(  24) = (   0.8566206   0.9873410   4.5979061  )
        25        Li     tau(  25) = (   0.4833339   0.5195194   4.7471120  )
        26        Li     tau(  26) = (   0.7214941   0.0968878   4.8899212  )
        27        Li     tau(  27) = (   0.6572268   0.8694041   5.0465353  )
        28        Li     tau(  28) = (   0.8616342   0.4383306   5.2333637  )

   Crystallographic axes

     site n.     atom                  positions (cryst. coord.)
         1        Li     tau(   1) = (  0.0471540 -0.0168401  0.6121733  )
         2        Li     tau(   2) = (  0.0598612  0.6598098  0.3877923  )
         3        Li     tau(   3) = (  0.1866792  0.2914587  0.3987797  )
         4        Li     tau(   4) = (  0.3336912  0.9457893  0.4202642  )
         5        Li     tau(   5) = (  0.3726986  0.5651835  0.4382178  )
         6        Li     tau(   6) = (  0.0545270  0.2262935  0.4546472  )
         7        Li     tau(   7) = (  0.1187031  0.8511219  0.4718048  )
         8        Li     tau(   8) = (  0.2502814  0.5051484  0.4935530  )
         9        Li     tau(   9) = (  0.3570312  0.1376544  0.5064561  )
        10        Li     tau(  10) = (  0.4885575  0.7916334  0.5282161  )
        11        Li     tau(  11) = (  0.0527632  0.4165437  0.5453572  )
        12        Li     tau(  12) = (  0.2344431  0.0776840  0.5617634  )
        13        Li     tau(  13) = (  0.2734053  0.6970738  0.5797557  )
        14        Li     tau(  14) = (  0.4202085  0.3514460  0.6012188  )
        15        Li     tau(  15) = (  0.5471557 -0.0168403  0.6121733  )
        16        Li     tau(  16) = (  0.5598524  0.6598082  0.3877928  )
        17        Li     tau(  17) = (  0.6866801  0.2914562  0.3987796  )
        18        Li     tau(  18) = (  0.8336946  0.9457942  0.4202645  )
        19        Li     tau(  19) = (  0.8726876  0.5651795  0.4382187  )
        20        Li     tau(  20) = (  0.5545383  0.2262994  0.4546473  )
        21        Li     tau(  21) = (  0.6187047  0.8511218  0.4718050  )
        22        Li     tau(  22) = (  0.7502824  0.5051481  0.4935521  )
        23        Li     tau(  23) = (  0.8570308  0.1376540  0.5064559  )
        24        Li     tau(  24) = (  0.9885599  0.7916341  0.5282163  )
        25        Li     tau(  25) = (  0.5527578  0.4165422  0.5453574  )
        26        Li     tau(  26) = (  0.7344413  0.0776831  0.5617636  )
        27        Li     tau(  27) = (  0.7734060  0.6970741  0.5797557  )
        28        Li     tau(  28) = (  0.9202088  0.3514464  0.6012189  )

     number of k points=    50  Marzari-Vanderbilt smearing, width (Ry)=  0.0100
                       cart. coord. in units 2pi/alat
        k(    1) = (   0.0000000   0.0000000   0.0000000), wk =   0.0202020
        k(    2) = (   0.0000000   0.0890871   0.0000000), wk =   0.0404040
        k(    3) = (   0.0000000   0.1781742   0.0000000), wk =   0.0404040
        k(    4) = (   0.0000000   0.2672613   0.0000000), wk =   0.0404040
        k(    5) = (   0.0000000   0.3563484   0.0000000), wk =   0.0404040
        k(    6) = (   0.0909091   0.0121483   0.0000000), wk =   0.0404040
        k(    7) = (   0.0909091   0.1012354   0.0000000), wk =   0.0404040
        k(    8) = (   0.0909091   0.1903224   0.0000000), wk =   0.0404040
        k(    9) = (   0.0909091   0.2794095   0.0000000), wk =   0.0404040
        k(   10) = (   0.0909091   0.3684966   0.0000000), wk =   0.0404040
        k(   11) = (   0.0909091  -0.3442001   0.0000000), wk =   0.0404040
        k(   12) = (   0.0909091  -0.2551130   0.0000000), wk =   0.0404040
        k(   13) = (   0.0909091  -0.1660259   0.0000000), wk =   0.0404040
        k(   14) = (   0.0909091  -0.0769388   0.0000000), wk =   0.0404040
        k(   15) = (   0.1818182   0.0242965   0.0000000), wk =   0.0404040
        k(   16) = (   0.1818182   0.1133836   0.0000000), wk =   0.0404040
        k(   17) = (   0.1818182   0.2024707   0.0000000), wk =   0.0404040
        k(   18) = (   0.1818182   0.2915578   0.0000000), wk =   0.0404040
        k(   19) = (   0.1818182   0.3806449   0.0000000), wk =   0.0404040
        k(   20) = (   0.1818182  -0.3320518   0.0000000), wk =   0.0404040
        k(   21) = (   0.1818182  -0.2429647   0.0000000), wk =   0.0404040
        k(   22) = (   0.1818182  -0.1538777   0.0000000), wk =   0.0404040
        k(   23) = (   0.1818182  -0.0647906   0.0000000), wk =   0.0404040
        k(   24) = (   0.2727273   0.0364448   0.0000000), wk =   0.0404040
        k(   25) = (   0.2727273   0.1255319   0.0000000), wk =   0.0404040
        k(   26) = (   0.2727273   0.2146190   0.0000000), wk =   0.0404040
        k(   27) = (   0.2727273   0.3037061   0.0000000), wk =   0.0404040
        k(   28) = (   0.2727273   0.3927932   0.0000000), wk =   0.0404040
        k(   29) = (   0.2727273  -0.3199036   0.0000000), wk =   0.0404040
        k(   30) = (   0.2727273  -0.2308165   0.0000000), wk =   0.0404040
        k(   31) = (   0.2727273  -0.1417294   0.0000000), wk =   0.0404040
        k(   32) = (   0.2727273  -0.0526423   0.0000000), wk =   0.0404040
        k(   33) = (   0.3636364   0.0485931   0.0000000), wk =   0.0404040
        k(   34) = (   0.3636364   0.1376801   0.0000000), wk =   0.0404040
        k(   35) = (   0.3636364   0.2267672   0.0000000), wk =   0.0404040
        k(   36) = (   0.3636364   0.3158543   0.0000000), wk =   0.0404040
        k(   37) = (   0.3636364   0.4049414   0.0000000), wk =   0.0404040
        k(   38) = (   0.3636364  -0.3077553   0.0000000), wk =   0.0404040
        k(   39) = (   0.3636364  -0.2186682   0.0000000), wk =   0.0404040
        k(   40) = (   0.3636364  -0.1295811   0.0000000), wk =   0.0404040
        k(   41) = (   0.3636364  -0.0404940   0.0000000), wk =   0.0404040
        k(   42) = (   0.4545455   0.0607413   0.0000000), wk =   0.0404040
        k(   43) = (   0.4545455   0.1498284   0.0000000), wk =   0.0404040
        k(   44) = (   0.4545455   0.2389155   0.0000000), wk =   0.0404040
        k(   45) = (   0.4545455   0.3280026   0.0000000), wk =   0.0404040
        k(   46) = (   0.4545455   0.4170897   0.0000000), wk =   0.0404040
        k(   47) = (   0.4545455  -0.2956070   0.0000000), wk =   0.0404040
        k(   48) = (   0.4545455  -0.2065200   0.0000000), wk =   0.0404040
        k(   49) = (   0.4545455  -0.1174329   0.0000000), wk =   0.0404040
        k(   50) = (   0.4545455  -0.0283458   0.0000000), wk =   0.0404040

                       cryst. coord.
        k(    1) = (   0.0000000   0.0000000   0.0000000), wk =   0.0202020
        k(    2) = (   0.0000000   0.1111111   0.0000000), wk =   0.0404040
        k(    3) = (   0.0000000   0.2222222   0.0000000), wk =   0.0404040
        k(    4) = (   0.0000000   0.3333333   0.0000000), wk =   0.0404040
        k(    5) = (   0.0000000   0.4444444   0.0000000), wk =   0.0404040
        k(    6) = (   0.0909091  -0.0000000   0.0000000), wk =   0.0404040
        k(    7) = (   0.0909091   0.1111111   0.0000000), wk =   0.0404040
        k(    8) = (   0.0909091   0.2222222   0.0000000), wk =   0.0404040
        k(    9) = (   0.0909091   0.3333333   0.0000000), wk =   0.0404040
        k(   10) = (   0.0909091   0.4444444   0.0000000), wk =   0.0404040
        k(   11) = (   0.0909091  -0.4444444   0.0000000), wk =   0.0404040
        k(   12) = (   0.0909091  -0.3333333   0.0000000), wk =   0.0404040
        k(   13) = (   0.0909091  -0.2222222   0.0000000), wk =   0.0404040
        k(   14) = (   0.0909091  -0.1111111   0.0000000), wk =   0.0404040
        k(   15) = (   0.1818182  -0.0000000   0.0000000), wk =   0.0404040
        k(   16) = (   0.1818182   0.1111111   0.0000000), wk =   0.0404040
        k(   17) = (   0.1818182   0.2222222   0.0000000), wk =   0.0404040
        k(   18) = (   0.1818182   0.3333333   0.0000000), wk =   0.0404040
        k(   19) = (   0.1818182   0.4444444   0.0000000), wk =   0.0404040
        k(   20) = (   0.1818182  -0.4444444   0.0000000), wk =   0.0404040
        k(   21) = (   0.1818182  -0.3333333   0.0000000), wk =   0.0404040
        k(   22) = (   0.1818182  -0.2222222   0.0000000), wk =   0.0404040
        k(   23) = (   0.1818182  -0.1111111   0.0000000), wk =   0.0404040
        k(   24) = (   0.2727273   0.0000000   0.0000000), wk =   0.0404040
        k(   25) = (   0.2727273   0.1111111   0.0000000), wk =   0.0404040
        k(   26) = (   0.2727273   0.2222222   0.0000000), wk =   0.0404040
        k(   27) = (   0.2727273   0.3333333   0.0000000), wk =   0.0404040
        k(   28) = (   0.2727273   0.4444444   0.0000000), wk =   0.0404040
        k(   29) = (   0.2727273  -0.4444444   0.0000000), wk =   0.0404040
        k(   30) = (   0.2727273  -0.3333333   0.0000000), wk =   0.0404040
        k(   31) = (   0.2727273  -0.2222222   0.0000000), wk =   0.0404040
        k(   32) = (   0.2727273  -0.1111111   0.0000000), wk =   0.0404040
        k(   33) = (   0.3636364  -0.0000000   0.0000000), wk =   0.0404040
        k(   34) = (   0.3636364   0.1111111   0.0000000), wk =   0.0404040
        k(   35) = (   0.3636364   0.2222222   0.0000000), wk =   0.0404040
        k(   36) = (   0.3636364   0.3333333   0.0000000), wk =   0.0404040
        k(   37) = (   0.3636364   0.4444444   0.0000000), wk =   0.0404040
        k(   38) = (   0.3636364  -0.4444444   0.0000000), wk =   0.0404040
        k(   39) = (   0.3636364  -0.3333333   0.0000000), wk =   0.0404040
        k(   40) = (   0.3636364  -0.2222222   0.0000000), wk =   0.0404040
        k(   41) = (   0.3636364  -0.1111111   0.0000000), wk =   0.0404040
        k(   42) = (   0.4545455  -0.0000000   0.0000000), wk =   0.0404040
        k(   43) = (   0.4545455   0.1111111   0.0000000), wk =   0.0404040
        k(   44) = (   0.4545455   0.2222222   0.0000000), wk =   0.0404040
        k(   45) = (   0.4545455   0.3333333   0.0000000), wk =   0.0404040
        k(   46) = (   0.4545455   0.4444444   0.0000000), wk =   0.0404040
        k(   47) = (   0.4545455  -0.4444444   0.0000000), wk =   0.0404040
        k(   48) = (   0.4545455  -0.3333333   0.0000000), wk =   0.0404040
        k(   49) = (   0.4545455  -0.2222222   0.0000000), wk =   0.0404040
        k(   50) = (   0.4545455  -0.1111111   0.0000000), wk =   0.0404040

     Dense  grid:  5896473 G-vectors     FFT dimensions: ( 108, 128, 900)

     Smooth grid:  1491071 G-vectors     FFT dimensions: (  72,  81, 576)

     Dynamical RAM for                 wfc:       0.70 MB

     Dynamical RAM for     wfc (w. buffer):      18.20 MB

     Dynamical RAM for           str. fact:       0.35 MB

     Dynamical RAM for           local pot:       0.00 MB

     Dynamical RAM for          nlocal pot:       2.49 MB

     Dynamical RAM for                qrad:       0.65 MB

     Dynamical RAM for          rho,v,vnew:       2.32 MB

     Dynamical RAM for               rhoin:       0.77 MB

     Dynamical RAM for            rho*nmix:       5.62 MB

     Dynamical RAM for           G-vectors:       1.36 MB

     Dynamical RAM for          h,s,v(r/c):       2.91 MB

     Dynamical RAM for          <psi|beta>:       0.22 MB

     Dynamical RAM for                 psi:       2.80 MB

     Dynamical RAM for                hpsi:       2.80 MB

     Dynamical RAM for                spsi:       2.80 MB

     Dynamical RAM for      wfcinit/wfcrot:       1.49 MB

     Dynamical RAM for           addusdens:      12.65 MB

     Dynamical RAM for          addusforce:      22.17 MB

     Estimated static dynamical RAM per process >      28.95 MB

     Estimated max dynamical RAM per process >      89.97 MB

     Estimated total dynamical RAM >      26.96 GB

     Initial potential from superposition of free atoms

     starting charge      83.8710, renormalised to      84.0000

     negative rho (up, down):  2.661E-03 0.000E+00
     Starting wfcs are random
     Checking if some PAW data can be deallocated... 

     total cpu time spent up to now is       22.2 secs

     Self-consistent Calculation

     iteration #  1     ecut=    80.00 Ry     beta= 0.20
     Davidson diagonalization with overlap

---- Real-time Memory Report at c_bands before calling an iterative solver
           339 MiB given to the printing process from OS
             0 MiB allocation reported by mallinfo(arena+hblkhd)
        221390 MiB available memory on the node where the printing process lives
------------------
     c_bands:  1 eigenvalues not converged
     c_bands:  1 eigenvalues not converged
     c_bands:  1 eigenvalues not converged
     c_bands:  1 eigenvalues not converged
     c_bands:  1 eigenvalues not converged
     c_bands:  1 eigenvalues not converged
     ethr =  1.00E-12,  avg # of iterations =111.6

     negative rho (up, down):  1.993E-03 0.000E+00

     total cpu time spent up to now is      214.3 secs

     total energy              =    -421.10082228 Ry
     estimated scf accuracy    <       0.10786341 Ry

     total charge of GC-SCF    =      -0.03188345 e
     the Fermi energy          =      -4.29153663 eV
                        (error :       2.88753663 eV)
     electrostatic embedding   =       0.00000000 Ry
     cavitation energy         =       0.01804663 Ry
     electrolyte free energy   =       0.00664192 Ry
     correction to one-el term =      -0.00000000 Ry

     iteration #  2     ecut=    80.00 Ry     beta= 0.20
     Davidson diagonalization with overlap

---- Real-time Memory Report at c_bands before calling an iterative solver
           339 MiB given to the printing process from OS
             0 MiB allocation reported by mallinfo(arena+hblkhd)
        221496 MiB available memory on the node where the printing process lives
------------------
     ethr =  1.00E-05,  avg # of iterations = 11.5

     negative rho (up, down):  1.571E-03 0.000E+00

     add environment contribution to local potential

     total cpu time spent up to now is      239.1 secs

     total energy              =    -421.13299819 Ry
     estimated scf accuracy    <       0.03915314 Ry

     total charge of GC-SCF    =      -0.05487709 e
     the Fermi energy          =      -2.94155429 eV
                        (error :       1.53755429 eV)
     electrostatic embedding   =      -0.00027262 Ry
     cavitation energy         =       0.01804663 Ry
     electrolyte free energy   =       0.00664192 Ry
     correction to one-el term =      -0.00000000 Ry

     iteration #  3     ecut=    80.00 Ry     beta= 0.20
     Davidson diagonalization with overlap

---- Real-time Memory Report at c_bands before calling an iterative solver
           339 MiB given to the printing process from OS
             0 MiB allocation reported by mallinfo(arena+hblkhd)
        221436 MiB available memory on the node where the printing process lives
------------------
     ethr =  1.00E-05,  avg # of iterations = 23.0

     negative rho (up, down):  1.299E-03 0.000E+00

     add environment contribution to local potential

     total cpu time spent up to now is      277.1 secs

     total energy              =    -421.04484140 Ry
     estimated scf accuracy    <       0.03304685 Ry

     total charge of GC-SCF    =      -0.16522296 e
     the Fermi energy          =      -2.93554625 eV
                        (error :       1.53154625 eV)
     electrostatic embedding   =      -0.02430495 Ry
     cavitation energy         =       0.01804663 Ry
     electrolyte free energy   =      -0.00208716 Ry
     correction to one-el term =       2.41691242 Ry

     iteration #  4     ecut=    80.00 Ry     beta= 0.20
     Davidson diagonalization with overlap

---- Real-time Memory Report at c_bands before calling an iterative solver
           339 MiB given to the printing process from OS
             0 MiB allocation reported by mallinfo(arena+hblkhd)
        221445 MiB available memory on the node where the printing process lives
------------------
     ethr =  1.00E-05,  avg # of iterations = 10.8

     negative rho (up, down):  1.059E-03 0.000E+00

     add environment contribution to local potential

     total cpu time spent up to now is      301.4 secs

     total energy              =    -421.07850035 Ry
     estimated scf accuracy    <       0.01253079 Ry

     total charge of GC-SCF    =      -0.27140359 e
     the Fermi energy          =      -3.18902947 eV
                        (error :       1.78502947 eV)
     electrostatic embedding   =      -0.03477645 Ry
     cavitation energy         =       0.01804663 Ry
     electrolyte free energy   =      -0.00281004 Ry
     correction to one-el term =       7.04539785 Ry

     iteration #  5     ecut=    80.00 Ry     beta= 0.20
     Davidson diagonalization with overlap

---- Real-time Memory Report at c_bands before calling an iterative solver
           339 MiB given to the printing process from OS
             0 MiB allocation reported by mallinfo(arena+hblkhd)
        221441 MiB available memory on the node where the printing process lives
------------------
     ethr =  1.00E-05,  avg # of iterations = 17.3

     negative rho (up, down):  8.925E-04 0.000E+00

     add environment contribution to local potential

     total cpu time spent up to now is      335.5 secs

     total energy              =    -420.92258961 Ry
     estimated scf accuracy    <       0.00389347 Ry

     total charge of GC-SCF    =      -0.63333860 e
     the Fermi energy          =      -2.71603197 eV
                        (error :       1.31203197 eV)
     electrostatic embedding   =      -0.04775240 Ry
     cavitation energy         =       0.01804663 Ry
     electrolyte free energy   =      -0.00100726 Ry
     correction to one-el term =      11.18598715 Ry

     iteration #  6     ecut=    80.00 Ry     beta= 0.20
     Davidson diagonalization with overlap

---- Real-time Memory Report at c_bands before calling an iterative solver
           339 MiB given to the printing process from OS
             0 MiB allocation reported by mallinfo(arena+hblkhd)
        221420 MiB available memory on the node where the printing process lives
------------------
     ethr =  4.60E-06,  avg # of iterations = 28.4

     negative rho (up, down):  7.771E-04 0.000E+00

     add environment contribution to local potential

     total cpu time spent up to now is      378.4 secs

     total energy              =    -421.11032853 Ry
     estimated scf accuracy    <       0.02698300 Ry

     total charge of GC-SCF    =      -0.74762726 e
     the Fermi energy          =      -1.85791705 eV
                        (error :       0.45391705 eV)
     electrostatic embedding   =      -0.13864702 Ry
     cavitation energy         =       0.01804663 Ry
     electrolyte free energy   =      -0.00216864 Ry
     correction to one-el term =      26.74169484 Ry

     iteration #  7     ecut=    80.00 Ry     beta= 0.20
     Davidson diagonalization with overlap

---- Real-time Memory Report at c_bands before calling an iterative solver
           339 MiB given to the printing process from OS
             0 MiB allocation reported by mallinfo(arena+hblkhd)
        221394 MiB available memory on the node where the printing process lives
------------------
     ethr =  4.60E-06,  avg # of iterations =  6.5

     negative rho (up, down):  6.885E-04 0.000E+00

     add environment contribution to local potential

     total cpu time spent up to now is      395.3 secs

     total energy              =    -421.09855883 Ry
     estimated scf accuracy    <       0.01996762 Ry

     total charge of GC-SCF    =      -0.89445077 e
     the Fermi energy          =      -1.91348573 eV
                        (error :       0.50948573 eV)
     electrostatic embedding   =      -0.18179160 Ry
     cavitation energy         =       0.01804663 Ry
     electrolyte free energy   =      -0.00224044 Ry
     correction to one-el term =      30.80496519 Ry

     iteration #  8     ecut=    80.00 Ry     beta= 0.20
     Davidson diagonalization with overlap

---- Real-time Memory Report at c_bands before calling an iterative solver
           339 MiB given to the printing process from OS
             0 MiB allocation reported by mallinfo(arena+hblkhd)
        221368 MiB available memory on the node where the printing process lives
------------------
     ethr =  4.60E-06,  avg # of iterations =  8.3

     negative rho (up, down):  5.883E-04 0.000E+00

     add environment contribution to local potential

     total cpu time spent up to now is      414.6 secs

     total energy              =    -421.07027414 Ry
     estimated scf accuracy    <       0.01294324 Ry

     total charge of GC-SCF    =      -1.35954840 e
     the Fermi energy          =      -1.97733372 eV
                        (error :       0.57333372 eV)
     electrostatic embedding   =      -0.24560300 Ry
     cavitation energy         =       0.01804663 Ry
     electrolyte free energy   =      -0.00241156 Ry
     correction to one-el term =      35.90419104 Ry

     iteration #  9     ecut=    80.00 Ry     beta= 0.20
     Davidson diagonalization with overlap

---- Real-time Memory Report at c_bands before calling an iterative solver
           339 MiB given to the printing process from OS
             0 MiB allocation reported by mallinfo(arena+hblkhd)
        221342 MiB available memory on the node where the printing process lives
------------------
     ethr =  4.60E-06,  avg # of iterations =  9.6

     negative rho (up, down):  5.292E-04 0.000E+00

     add environment contribution to local potential

     total cpu time spent up to now is      437.5 secs

     total energy              =    -421.13427210 Ry
     estimated scf accuracy    <       0.01483330 Ry

     total charge of GC-SCF    =      -1.50398637 e
     the Fermi energy          =      -1.90336820 eV
                        (error :       0.49936820 eV)
     electrostatic embedding   =      -0.50009629 Ry
     cavitation energy         =       0.01804663 Ry
     electrolyte free energy   =      -0.00459927 Ry
     correction to one-el term =      51.17889544 Ry

     iteration # 10     ecut=    80.00 Ry     beta= 0.20
     Davidson diagonalization with overlap

---- Real-time Memory Report at c_bands before calling an iterative solver
           339 MiB given to the printing process from OS
             0 MiB allocation reported by mallinfo(arena+hblkhd)
        221278 MiB available memory on the node where the printing process lives
------------------
     ethr =  4.60E-06,  avg # of iterations = 10.3

     negative rho (up, down):  4.712E-04 0.000E+00

     add environment contribution to local potential

     total cpu time spent up to now is      459.5 secs

     total energy              =    -421.13830397 Ry
     estimated scf accuracy    <       0.00744572 Ry

     total charge of GC-SCF    =      -1.74307902 e
     the Fermi energy          =      -2.01180687 eV
                        (error :       0.60780687 eV)
     electrostatic embedding   =      -0.59834487 Ry
     cavitation energy         =       0.01804663 Ry
     electrolyte free energy   =      -0.00506541 Ry
     correction to one-el term =      55.69952504 Ry

     iteration # 11     ecut=    80.00 Ry     beta= 0.20
     Davidson diagonalization with overlap

---- Real-time Memory Report at c_bands before calling an iterative solver
           339 MiB given to the printing process from OS
             0 MiB allocation reported by mallinfo(arena+hblkhd)
        221250 MiB available memory on the node where the printing process lives
------------------
     ethr =  4.60E-06,  avg # of iterations =  7.9

     negative rho (up, down):  4.329E-04 0.000E+00

     add environment contribution to local potential

     total cpu time spent up to now is      479.2 secs

     total energy              =    -421.08701846 Ry
     estimated scf accuracy    <       0.00813967 Ry

     total charge of GC-SCF    =      -2.64086515 e
     the Fermi energy          =      -1.99186236 eV
                        (error :       0.58786236 eV)
     electrostatic embedding   =      -0.77205679 Ry
     cavitation energy         =       0.01804663 Ry
     electrolyte free energy   =      -0.00689775 Ry
     correction to one-el term =      62.88618202 Ry

     iteration # 12     ecut=    80.00 Ry     beta= 0.20
     Davidson diagonalization with overlap

---- Real-time Memory Report at c_bands before calling an iterative solver
           339 MiB given to the printing process from OS
             0 MiB allocation reported by mallinfo(arena+hblkhd)
        221235 MiB available memory on the node where the printing process lives
------------------
     ethr =  4.60E-06,  avg # of iterations = 11.2

     negative rho (up, down):  3.906E-04 0.000E+00

     add environment contribution to local potential

     total cpu time spent up to now is      505.3 secs

     total energy              =    -421.19077269 Ry
     estimated scf accuracy    <       0.00061282 Ry

     total charge of GC-SCF    =      -2.99072583 e
     the Fermi energy          =      -2.15259664 eV
                        (error :       0.74859664 eV)
     electrostatic embedding   =      -1.65084862 Ry
     cavitation energy         =       0.01804663 Ry
     electrolyte free energy   =      -0.01922955 Ry
     correction to one-el term =      90.42162058 Ry

     iteration # 13     ecut=    80.00 Ry     beta= 0.20
     Davidson diagonalization with overlap

---- Real-time Memory Report at c_bands before calling an iterative solver
           339 MiB given to the printing process from OS
             0 MiB allocation reported by mallinfo(arena+hblkhd)
        221223 MiB available memory on the node where the printing process lives
------------------
     ethr =  7.04E-07,  avg # of iterations = 13.7

     negative rho (up, down):  3.436E-04 0.000E+00

     add environment contribution to local potential

     total cpu time spent up to now is      533.4 secs

     total energy              =    -421.23516897 Ry
     estimated scf accuracy    <       0.00040496 Ry

     total charge of GC-SCF    =      -3.21746932 e
     the Fermi energy          =      -1.98647749 eV
                        (error :       0.58247749 eV)
     electrostatic embedding   =      -2.08695678 Ry
     cavitation energy         =       0.01804663 Ry
     electrolyte free energy   =      -0.02832769 Ry
     correction to one-el term =     102.79367998 Ry

     iteration # 14     ecut=    80.00 Ry     beta= 0.20
     Davidson diagonalization with overlap

---- Real-time Memory Report at c_bands before calling an iterative solver
           339 MiB given to the printing process from OS
             0 MiB allocation reported by mallinfo(arena+hblkhd)
        221233 MiB available memory on the node where the printing process lives
------------------
     ethr =  4.64E-07,  avg # of iterations = 13.7

     negative rho (up, down):  3.246E-04 0.000E+00

     add environment contribution to local potential

     total cpu time spent up to now is      562.3 secs

     total energy              =    -421.26179610 Ry
     estimated scf accuracy    <       0.00065522 Ry

     total charge of GC-SCF    =      -3.25753786 e
     the Fermi energy          =      -1.80439616 eV
                        (error :       0.40039616 eV)
     electrostatic embedding   =      -2.36456549 Ry
     cavitation energy         =       0.01804663 Ry
     electrolyte free energy   =      -0.03555282 Ry
     correction to one-el term =     109.34317760 Ry

     iteration # 15     ecut=    80.00 Ry     beta= 0.20
     Davidson diagonalization with overlap

---- Real-time Memory Report at c_bands before calling an iterative solver
           339 MiB given to the printing process from OS
             0 MiB allocation reported by mallinfo(arena+hblkhd)
        221241 MiB available memory on the node where the printing process lives
------------------
     ethr =  4.64E-07,  avg # of iterations =  2.3

     negative rho (up, down):  3.094E-04 0.000E+00

     add environment contribution to local potential

     total cpu time spent up to now is      576.2 secs

     total energy              =    -421.26087169 Ry
     estimated scf accuracy    <       0.00058185 Ry

     total charge of GC-SCF    =      -3.31813487 e
     the Fermi energy          =      -1.79915418 eV
                        (error :       0.39515418 eV)
     electrostatic embedding   =      -2.41768304 Ry
     cavitation energy         =       0.01804663 Ry
     electrolyte free energy   =      -0.03684571 Ry
     correction to one-el term =     110.50545896 Ry

     iteration # 16     ecut=    80.00 Ry     beta= 0.20
     Davidson diagonalization with overlap

---- Real-time Memory Report at c_bands before calling an iterative solver
           339 MiB given to the printing process from OS
             0 MiB allocation reported by mallinfo(arena+hblkhd)
        221247 MiB available memory on the node where the printing process lives
------------------
     ethr =  4.64E-07,  avg # of iterations =  3.5

     negative rho (up, down):  3.023E-04 0.000E+00

     add environment contribution to local potential

     total cpu time spent up to now is      591.2 secs

     total energy              =    -421.26094265 Ry
     estimated scf accuracy    <       0.00047040 Ry

     total charge of GC-SCF    =      -3.40426203 e
     the Fermi energy          =      -1.79241871 eV
                        (error :       0.38841871 eV)
     electrostatic embedding   =      -2.50296955 Ry
     cavitation energy         =       0.01804663 Ry
     electrolyte free energy   =      -0.03887630 Ry
     correction to one-el term =     112.39964164 Ry

     iteration # 17     ecut=    80.00 Ry     beta= 0.20
     Davidson diagonalization with overlap

---- Real-time Memory Report at c_bands before calling an iterative solver
           339 MiB given to the printing process from OS
             0 MiB allocation reported by mallinfo(arena+hblkhd)
        221246 MiB available memory on the node where the printing process lives
------------------
     ethr =  4.64E-07,  avg # of iterations =  8.5

     negative rho (up, down):  3.073E-04 0.000E+00

     add environment contribution to local potential

     total cpu time spent up to now is      612.1 secs

     total energy              =    -421.26547010 Ry
     estimated scf accuracy    <       0.00033957 Ry

     total charge of GC-SCF    =      -3.94573790 e
     the Fermi energy          =      -1.78790543 eV
                        (error :       0.38390543 eV)
     electrostatic embedding   =      -2.61781524 Ry
     cavitation energy         =       0.01804663 Ry
     electrolyte free energy   =      -0.04182702 Ry
     correction to one-el term =     114.69848264 Ry

     iteration # 18     ecut=    80.00 Ry     beta= 0.20
     Davidson diagonalization with overlap

---- Real-time Memory Report at c_bands before calling an iterative solver
           339 MiB given to the printing process from OS
             0 MiB allocation reported by mallinfo(arena+hblkhd)
        221249 MiB available memory on the node where the printing process lives
------------------
     ethr =  3.86E-07,  avg # of iterations = 14.2

     negative rho (up, down):  2.937E-04 0.000E+00

     add environment contribution to local potential

     total cpu time spent up to now is      640.0 secs

     total energy              =    -421.27819193 Ry
     estimated scf accuracy    <       0.00015181 Ry

     total charge of GC-SCF    =      -4.08866486 e
     the Fermi energy          =      -1.63268151 eV
                        (error :       0.22868151 eV)
     electrostatic embedding   =      -3.38328198 Ry
     cavitation energy         =       0.01804663 Ry
     electrolyte free energy   =      -0.06478706 Ry
     correction to one-el term =     128.90764929 Ry

     iteration # 19     ecut=    80.00 Ry     beta= 0.20
     Davidson diagonalization with overlap

---- Real-time Memory Report at c_bands before calling an iterative solver
           339 MiB given to the printing process from OS
             0 MiB allocation reported by mallinfo(arena+hblkhd)
        221241 MiB available memory on the node where the printing process lives
------------------
     ethr =  1.72E-07,  avg # of iterations = 12.5

     negative rho (up, down):  2.696E-04 0.000E+00

     add environment contribution to local potential

     total cpu time spent up to now is      670.4 secs

     total energy              =    -421.31469869 Ry
     estimated scf accuracy    <       0.00007918 Ry

     total charge of GC-SCF    =      -4.68001320 e
     the Fermi energy          =      -1.60427209 eV
                        (error :       0.20027209 eV)
     electrostatic embedding   =      -3.58620704 Ry
     cavitation energy         =       0.01804663 Ry
     electrolyte free energy   =      -0.07200623 Ry
     correction to one-el term =     131.93853441 Ry

     iteration # 20     ecut=    80.00 Ry     beta= 0.20
     Davidson diagonalization with overlap

---- Real-time Memory Report at c_bands before calling an iterative solver
           339 MiB given to the printing process from OS
             0 MiB allocation reported by mallinfo(arena+hblkhd)
        221211 MiB available memory on the node where the printing process lives
------------------
     ethr =  8.93E-08,  avg # of iterations = 21.3

     negative rho (up, down):  2.603E-04 0.000E+00

     add environment contribution to local potential

     total cpu time spent up to now is      709.0 secs

     total energy              =    -421.30441855 Ry
     estimated scf accuracy    <       0.00004324 Ry

     total charge of GC-SCF    =      -4.36697045 e
     the Fermi energy          =      -1.39264807 eV
                        (error :       0.01135193 eV)
     electrostatic embedding   =      -4.56204025 Ry
     cavitation energy         =       0.01804663 Ry
     electrolyte free energy   =      -0.11186266 Ry
     correction to one-el term =     147.70745512 Ry

     iteration # 21     ecut=    80.00 Ry     beta= 0.20
     Davidson diagonalization with overlap

---- Real-time Memory Report at c_bands before calling an iterative solver
           339 MiB given to the printing process from OS
             0 MiB allocation reported by mallinfo(arena+hblkhd)
        221202 MiB available memory on the node where the printing process lives
------------------
     ethr =  4.89E-08,  avg # of iterations = 20.6

     negative rho (up, down):  2.374E-04 0.000E+00

     add environment contribution to local potential

     total cpu time spent up to now is      746.1 secs

     total energy              =    -421.29699929 Ry
     estimated scf accuracy    <       0.00001716 Ry

     total charge of GC-SCF    =      -4.69272954 e
     the Fermi energy          =      -1.52232252 eV
                        (error :       0.11832252 eV)
     electrostatic embedding   =      -4.02200709 Ry
     cavitation energy         =       0.01804663 Ry
     electrolyte free energy   =      -0.08836347 Ry
     correction to one-el term =     139.03653977 Ry

     iteration # 22     ecut=    80.00 Ry     beta= 0.20
     Davidson diagonalization with overlap

---- Real-time Memory Report at c_bands before calling an iterative solver
           339 MiB given to the printing process from OS
             0 MiB allocation reported by mallinfo(arena+hblkhd)
        221184 MiB available memory on the node where the printing process lives
------------------
     ethr =  1.93E-08,  avg # of iterations = 22.8

     negative rho (up, down):  2.276E-04 0.000E+00

     add environment contribution to local potential

     total cpu time spent up to now is      788.8 secs

     total energy              =    -421.28845153 Ry
     estimated scf accuracy    <       0.00001560 Ry

     total charge of GC-SCF    =      -4.68813493 e
     the Fermi energy          =      -1.38257110 eV
                        (error :       0.02142890 eV)
     electrostatic embedding   =      -4.55940742 Ry
     cavitation energy         =       0.01804663 Ry
     electrolyte free energy   =      -0.11295718 Ry
     correction to one-el term =     147.34937989 Ry

     iteration # 23     ecut=    80.00 Ry     beta= 0.20
     Davidson diagonalization with overlap

---- Real-time Memory Report at c_bands before calling an iterative solver
           339 MiB given to the printing process from OS
             0 MiB allocation reported by mallinfo(arena+hblkhd)
        221189 MiB available memory on the node where the printing process lives
------------------
     ethr =  1.76E-08,  avg # of iterations = 10.7

     negative rho (up, down):  2.235E-04 0.000E+00

     add environment contribution to local potential

     total cpu time spent up to now is      814.6 secs

     total energy              =    -421.28962402 Ry
     estimated scf accuracy    <       0.00000736 Ry

     total charge of GC-SCF    =      -4.60789348 e
     the Fermi energy          =      -1.39327911 eV
                        (error :       0.01072089 eV)
     electrostatic embedding   =      -4.54015631 Ry
     cavitation energy         =       0.01804663 Ry
     electrolyte free energy   =      -0.11247372 Ry
     correction to one-el term =     146.84382268 Ry

     iteration # 24     ecut=    80.00 Ry     beta= 0.20
     Davidson diagonalization with overlap

---- Real-time Memory Report at c_bands before calling an iterative solver
           339 MiB given to the printing process from OS
             0 MiB allocation reported by mallinfo(arena+hblkhd)
        221183 MiB available memory on the node where the printing process lives
------------------
     ethr =  8.31E-09,  avg # of iterations = 15.2

     negative rho (up, down):  2.212E-04 0.000E+00

     add environment contribution to local potential

     total cpu time spent up to now is      845.0 secs

     total energy              =    -421.28888102 Ry
     estimated scf accuracy    <       0.00000342 Ry

     total charge of GC-SCF    =      -4.64651560 e
     the Fermi energy          =      -1.43062787 eV
                        (error :       0.02662787 eV)
     electrostatic embedding   =      -4.39354916 Ry
     cavitation energy         =       0.01804663 Ry
     electrolyte free energy   =      -0.10553168 Ry
     correction to one-el term =     144.42262897 Ry

     iteration # 25     ecut=    80.00 Ry     beta= 0.20
     Davidson diagonalization with overlap

---- Real-time Memory Report at c_bands before calling an iterative solver
           339 MiB given to the printing process from OS
             0 MiB allocation reported by mallinfo(arena+hblkhd)
        221179 MiB available memory on the node where the printing process lives
------------------
     ethr =  3.86E-09,  avg # of iterations = 11.4

     negative rho (up, down):  2.213E-04 0.000E+00

     add environment contribution to local potential

     total cpu time spent up to now is      872.4 secs

     total energy              =    -421.28911600 Ry
     estimated scf accuracy    <       0.00000253 Ry

     total charge of GC-SCF    =      -4.69800164 e
     the Fermi energy          =      -1.41463937 eV
                        (error :       0.01063937 eV)
     electrostatic embedding   =      -4.45219046 Ry
     cavitation energy         =       0.01804663 Ry
     electrolyte free energy   =      -0.10871750 Ry
     correction to one-el term =     145.20750509 Ry

     iteration # 26     ecut=    80.00 Ry     beta= 0.20
     Davidson diagonalization with overlap

---- Real-time Memory Report at c_bands before calling an iterative solver
           339 MiB given to the printing process from OS
             0 MiB allocation reported by mallinfo(arena+hblkhd)
        221206 MiB available memory on the node where the printing process lives
------------------
     ethr =  2.85E-09,  avg # of iterations = 17.3

     negative rho (up, down):  2.219E-04 0.000E+00

     add environment contribution to local potential

     total cpu time spent up to now is      905.2 secs

     total energy              =    -421.28888383 Ry
     estimated scf accuracy    <       0.00000096 Ry

     total charge of GC-SCF    =      -4.67110599 e
     the Fermi energy          =      -1.39487655 eV
                        (error :       0.00912345 eV)
     electrostatic embedding   =      -4.53038463 Ry
     cavitation energy         =       0.01804663 Ry
     electrolyte free energy   =      -0.11328528 Ry
     correction to one-el term =     146.24469908 Ry

     iteration # 27     ecut=    80.00 Ry     beta= 0.20
     Davidson diagonalization with overlap

---- Real-time Memory Report at c_bands before calling an iterative solver
           339 MiB given to the printing process from OS
             0 MiB allocation reported by mallinfo(arena+hblkhd)
        221210 MiB available memory on the node where the printing process lives
------------------
     ethr =  1.08E-09,  avg # of iterations = 15.4

     negative rho (up, down):  2.204E-04 0.000E+00

     add environment contribution to local potential

     total cpu time spent up to now is      936.0 secs

     total energy              =    -421.28892625 Ry
     estimated scf accuracy    <       0.00000052 Ry

     total charge of GC-SCF    =      -4.69131515 e
     the Fermi energy          =      -1.40955902 eV
                        (error :       0.00555902 eV)
     electrostatic embedding   =      -4.48115137 Ry
     cavitation energy         =       0.01804663 Ry
     electrolyte free energy   =      -0.11080562 Ry
     correction to one-el term =     145.42327883 Ry

     iteration # 28     ecut=    80.00 Ry     beta= 0.20
     Davidson diagonalization with overlap

---- Real-time Memory Report at c_bands before calling an iterative solver
           339 MiB given to the printing process from OS
             0 MiB allocation reported by mallinfo(arena+hblkhd)
        221220 MiB available memory on the node where the printing process lives
------------------
     ethr =  5.90E-10,  avg # of iterations = 12.4

     negative rho (up, down):  2.185E-04 0.000E+00

     add environment contribution to local potential

     total cpu time spent up to now is      963.5 secs

     total energy              =    -421.28892410 Ry
     estimated scf accuracy    <       0.00000036 Ry

     total charge of GC-SCF    =      -4.66746524 e
     the Fermi energy          =      -1.40019778 eV
                        (error :       0.00380222 eV)
     electrostatic embedding   =      -4.51478616 Ry
     cavitation energy         =       0.01804663 Ry
     electrolyte free energy   =      -0.11264042 Ry
     correction to one-el term =     145.92286311 Ry

     iteration # 29     ecut=    80.00 Ry     beta= 0.20
     Davidson diagonalization with overlap

---- Real-time Memory Report at c_bands before calling an iterative solver
           339 MiB given to the printing process from OS
             0 MiB allocation reported by mallinfo(arena+hblkhd)
        221205 MiB available memory on the node where the printing process lives
------------------
     ethr =  4.04E-10,  avg # of iterations = 19.6

     negative rho (up, down):  2.174E-04 0.000E+00

     add environment contribution to local potential

     total cpu time spent up to now is      998.8 secs

     total energy              =    -421.28890377 Ry
     estimated scf accuracy    <       0.00000016 Ry

     total charge of GC-SCF    =      -4.68072304 e
     the Fermi energy          =      -1.41228894 eV
                        (error :       0.00828894 eV)
     electrostatic embedding   =      -4.47435645 Ry
     cavitation energy         =       0.01804663 Ry
     electrolyte free energy   =      -0.11047775 Ry
     correction to one-el term =     145.29991952 Ry

     iteration # 30     ecut=    80.00 Ry     beta= 0.20
     Davidson diagonalization with overlap

---- Real-time Memory Report at c_bands before calling an iterative solver
           339 MiB given to the printing process from OS
             0 MiB allocation reported by mallinfo(arena+hblkhd)
        221176 MiB available memory on the node where the printing process lives
------------------
     ethr =  1.84E-10,  avg # of iterations = 13.5

     negative rho (up, down):  2.164E-04 0.000E+00

     add environment contribution to local potential

     total cpu time spent up to now is     1026.6 secs

     total energy              =    -421.28887531 Ry
     estimated scf accuracy    <       0.00000007 Ry

     total charge of GC-SCF    =      -4.68647663 e
     the Fermi energy          =      -1.40573123 eV
                        (error :       0.00173123 eV)
     electrostatic embedding   =      -4.49693281 Ry
     cavitation energy         =       0.01804663 Ry
     electrolyte free energy   =      -0.11166874 Ry
     correction to one-el term =     145.64993502 Ry

     iteration # 31     ecut=    80.00 Ry     beta= 0.20
     Davidson diagonalization with overlap

---- Real-time Memory Report at c_bands before calling an iterative solver
           339 MiB given to the printing process from OS
             0 MiB allocation reported by mallinfo(arena+hblkhd)
        221175 MiB available memory on the node where the printing process lives
------------------
     ethr =  7.52E-11,  avg # of iterations = 13.2

     negative rho (up, down):  2.159E-04 0.000E+00

     add environment contribution to local potential

     total cpu time spent up to now is     1055.4 secs

     total energy              =    -421.28885763 Ry
     estimated scf accuracy    <       0.00000002 Ry

     total charge of GC-SCF    =      -4.68569246 e
     the Fermi energy          =      -1.40279344 eV
                        (error :       0.00120656 eV)
     electrostatic embedding   =      -4.50736243 Ry
     cavitation energy         =       0.01804663 Ry
     electrolyte free energy   =      -0.11219802 Ry
     correction to one-el term =     145.82613455 Ry

     iteration # 32     ecut=    80.00 Ry     beta= 0.20
     Davidson diagonalization with overlap

---- Real-time Memory Report at c_bands before calling an iterative solver
           339 MiB given to the printing process from OS
             0 MiB allocation reported by mallinfo(arena+hblkhd)
        221138 MiB available memory on the node where the printing process lives
------------------
     ethr =  2.45E-11,  avg # of iterations = 10.9

     negative rho (up, down):  2.150E-04 0.000E+00

     total cpu time spent up to now is     1076.6 secs

     End of self-consistent calculation

          k = 0.0000 0.0000 0.0000 (186229 PWs)   bands (ev):

   -48.2859 -48.2852 -48.2778 -48.2771 -48.2278 -48.2275 -48.2198 -48.2195
   -48.0184 -48.0181 -48.0102 -48.0099 -47.9499 -47.9455 -47.9405 -47.9379
   -47.9243 -47.9198 -47.9153 -47.9127 -47.9008 -47.8999 -47.8937 -47.8933
   -47.8912 -47.8907 -47.8873 -47.8869  -4.8649  -4.5638  -4.0827  -3.5146
    -2.8931  -2.8276  -2.8236  -2.5058  -2.5036  -2.1538  -2.0223  -1.9675
    -1.6638  -1.6450  -1.5368  -1.4209  -1.3542  -1.2202  -1.1357  -1.0586
    -1.0401  -0.9487  -0.7245  -0.7009  -0.6748  -0.3872  -0.2980  -0.2038
    -0.1276  -0.0335   0.1392   0.3377   0.3598   0.5101   0.5711

     occupation numbers 
     1.0000   1.0000   1.0000   1.0000   1.0000   1.0000   1.0000   1.0000
     1.0000   1.0000   1.0000   1.0000   1.0000   1.0000   1.0000   1.0000
     1.0000   1.0000   1.0000   1.0000   1.0000   1.0000   1.0000   1.0000
     1.0000   1.0000   1.0000   1.0000   1.0000   1.0000   1.0000   1.0000
     1.0000   1.0000   1.0000   1.0000   1.0000   1.0000   1.0000   1.0000
     1.0488   1.0618   1.0214   0.4936   0.1937   0.0078   0.0004   0.0000
     0.0000   0.0000   0.0000   0.0000   0.0000   0.0000   0.0000   0.0000
     0.0000   0.0000   0.0000   0.0000   0.0000   0.0000   0.0000

          k = 0.0000 0.0891 0.0000 (186265 PWs)   bands (ev):

   -48.2859 -48.2852 -48.2778 -48.2771 -48.2278 -48.2275 -48.2198 -48.2195
   -48.0184 -48.0181 -48.0102 -48.0099 -47.9499 -47.9455 -47.9405 -47.9379
   -47.9245 -47.9196 -47.9153 -47.9127 -47.9009 -47.8999 -47.8937 -47.8933
   -47.8912 -47.8907 -47.8873 -47.8869  -4.8396  -4.5381  -4.0560  -3.4873
    -3.2471  -2.9257  -2.8648  -2.4071  -2.3652  -2.1291  -2.0456  -1.8430
    -1.6984  -1.5697  -1.5207  -1.4341  -1.3042  -1.2419  -1.0892  -1.0748
    -1.0347  -0.9399  -0.7516  -0.7356  -0.6048  -0.4233  -0.2617  -0.1394
    -0.1169   0.0019   0.1731   0.2435   0.3646   0.5430   0.6175

     occupation numbers 
     1.0000   1.0000   1.0000   1.0000   1.0000   1.0000   1.0000   1.0000
     1.0000   1.0000   1.0000   1.0000   1.0000   1.0000   1.0000   1.0000
     1.0000   1.0000   1.0000   1.0000   1.0000   1.0000   1.0000   1.0000
     1.0000   1.0000   1.0000   1.0000   1.0000   1.0000   1.0000   1.0000
     1.0000   1.0000   1.0000   1.0000   1.0000   1.0000   1.0000   1.0005
     1.0276   1.0731   0.9772   0.5659   0.0723   0.0149   0.0001   0.0000
     0.0000   0.0000   0.0000   0.0000   0.0000   0.0000   0.0000   0.0000
     0.0000   0.0000   0.0000   0.0000   0.0000   0.0000   0.0000

          k = 0.0000 0.1782 0.0000 (186243 PWs)   bands (ev):

   -48.2859 -48.2852 -48.2778 -48.2771 -48.2278 -48.2275 -48.2198 -48.2195
   -48.0184 -48.0181 -48.0102 -48.0099 -47.9498 -47.9455 -47.9405 -47.9378
   -47.9248 -47.9194 -47.9154 -47.9127 -47.9009 -47.8999 -47.8936 -47.8933
   -47.8912 -47.8907 -47.8873 -47.8869  -4.7637  -4.4609  -3.9762  -3.6260
    -3.4015  -3.3033  -2.7873  -2.7788  -2.1856  -2.0646  -1.8735  -1.7003
    -1.6620  -1.4546  -1.4415  -1.4311  -1.2114  -1.2040  -1.1506  -0.9922
    -0.9783  -0.9123  -0.8220  -0.7053  -0.5055  -0.4714  -0.2125  -0.1867
     0.0438   0.0672   0.1129   0.2682   0.3933   0.4587   0.6060

     occupation numbers 
     1.0000   1.0000   1.0000   1.0000   1.0000   1.0000   1.0000   1.0000
     1.0000   1.0000   1.0000   1.0000   1.0000   1.0000   1.0000   1.0000
     1.0000   1.0000   1.0000   1.0000   1.0000   1.0000   1.0000   1.0000
     1.0000   1.0000   1.0000   1.0000   1.0000   1.0000   1.0000   1.0000
     1.0000   1.0000   1.0000   1.0000   1.0000   1.0000   1.0002   1.0266
     1.0500   0.6794   0.6070   0.5495   0.0059   0.0047   0.0007   0.0000
     0.0000   0.0000   0.0000   0.0000   0.0000   0.0000   0.0000   0.0000
     0.0000   0.0000   0.0000   0.0000   0.0000   0.0000   0.0000

          k = 0.0000 0.2673 0.0000 (186330 PWs)   bands (ev):

   -48.2859 -48.2852 -48.2778 -48.2771 -48.2278 -48.2275 -48.2198 -48.2195
   -48.0184 -48.0181 -48.0102 -48.0099 -47.9497 -47.9455 -47.9405 -47.9378
   -47.9251 -47.9192 -47.9155 -47.9126 -47.9010 -47.9000 -47.8936 -47.8932
   -47.8912 -47.8907 -47.8873 -47.8869  -4.6373  -4.3327  -3.9529  -3.8470
    -3.6301  -3.2681  -3.1147  -2.6523  -2.5111  -2.0229  -1.8082  -1.6641
    -1.4472  -1.4203  -1.3001  -1.2667  -1.2200  -1.0797  -1.0570  -0.9796
    -0.8816  -0.8410  -0.8155  -0.5962  -0.5225  -0.3851  -0.3656  -0.1472
    -0.0721   0.0967   0.2082   0.2789   0.4199   0.5183   0.7108

     occupation numbers 
     1.0000   1.0000   1.0000   1.0000   1.0000   1.0000   1.0000   1.0000
     1.0000   1.0000   1.0000   1.0000   1.0000   1.0000   1.0000   1.0000
     1.0000   1.0000   1.0000   1.0000   1.0000   1.0000   1.0000   1.0000
     1.0000   1.0000   1.0000   1.0000   1.0000   1.0000   1.0000   1.0000
     1.0000   1.0000   1.0000   1.0000   1.0000   1.0000   1.0016   1.0486
     0.6384   0.4903   0.0659   0.0293   0.0078   0.0000   0.0000   0.0000
     0.0000   0.0000   0.0000   0.0000   0.0000   0.0000   0.0000   0.0000
     0.0000   0.0000   0.0000   0.0000   0.0000   0.0000   0.0000

          k = 0.0000 0.3563 0.0000 (186318 PWs)   bands (ev):

   -48.2859 -48.2852 -48.2778 -48.2771 -48.2278 -48.2275 -48.2198 -48.2195
   -48.0184 -48.0181 -48.0102 -48.0099 -47.9497 -47.9455 -47.9405 -47.9378
   -47.9253 -47.9190 -47.9155 -47.9126 -47.9011 -47.9000 -47.8935 -47.8931
   -47.8912 -47.8907 -47.8873 -47.8869  -4.4603  -4.2353  -4.1490  -3.9240
    -3.6482  -3.4142  -3.0637  -2.8190  -2.4545  -2.2103  -1.7691  -1.5961
    -1.5093  -1.4498  -1.2014  -1.1636  -1.0941  -1.0327  -0.9864  -0.8241
    -0.7988  -0.7559  -0.6771  -0.5982  -0.5717  -0.4080  -0.2686  -0.2424
    -0.1476  -0.0192   0.2392   0.4074   0.5039   0.6652   0.7214

     occupation numbers 
     1.0000   1.0000   1.0000   1.0000   1.0000   1.0000   1.0000   1.0000
     1.0000   1.0000   1.0000   1.0000   1.0000   1.0000   1.0000   1.0000
     1.0000   1.0000   1.0000   1.0000   1.0000   1.0000   1.0000   1.0000
     1.0000   1.0000   1.0000   1.0000   1.0000   1.0000   1.0000   1.0000
     1.0000   1.0000   1.0000   1.0000   1.0000   1.0000   1.0053   1.0833
     0.9383   0.6532   0.0043   0.0011   0.0001   0.0000   0.0000   0.0000
     0.0000   0.0000   0.0000   0.0000   0.0000   0.0000   0.0000   0.0000
     0.0000   0.0000   0.0000   0.0000   0.0000   0.0000   0.0000

          k = 0.0909 0.0121 0.0000 (186373 PWs)   bands (ev):

   -48.2858 -48.2851 -48.2779 -48.2772 -48.2276 -48.2273 -48.2200 -48.2197
   -48.0182 -48.0179 -48.0104 -48.0101 -47.9497 -47.9454 -47.9407 -47.9380
   -47.9241 -47.9196 -47.9155 -47.9129 -47.9007 -47.8997 -47.8936 -47.8932
   -47.8914 -47.8909 -47.8874 -47.8870  -4.8380  -4.5363  -4.0539  -3.4839
    -2.8642  -2.8556  -2.7360  -2.5361  -2.4156  -2.1981  -2.1224  -2.0245
    -1.9053  -1.8974  -1.5084  -1.4189  -1.1896  -1.1563  -1.1017  -1.0865
    -0.9513  -0.8553  -0.7335  -0.6759  -0.6346  -0.4617  -0.2627  -0.1684
    -0.1361   0.0022   0.1720   0.1747   0.3724   0.5058   0.5450

     occupation numbers 
     1.0000   1.0000   1.0000   1.0000   1.0000   1.0000   1.0000   1.0000
     1.0000   1.0000   1.0000   1.0000   1.0000   1.0000   1.0000   1.0000
     1.0000   1.0000   1.0000   1.0000   1.0000   1.0000   1.0000   1.0000
     1.0000   1.0000   1.0000   1.0000   1.0000   1.0000   1.0000   1.0000
     1.0000   1.0000   1.0000   1.0000   1.0000   1.0000   1.0000   1.0000
     1.0000   1.0001   0.9348   0.4829   0.0029   0.0009   0.0001   0.0000
     0.0000   0.0000   0.0000   0.0000   0.0000   0.0000   0.0000   0.0000
     0.0000   0.0000   0.0000   0.0000   0.0000   0.0000   0.0000

          k = 0.0909 0.1012 0.0000 (186296 PWs)   bands (ev):

   -48.2858 -48.2851 -48.2779 -48.2772 -48.2276 -48.2273 -48.2200 -48.2197
   -48.0182 -48.0179 -48.0104 -48.0101 -47.9497 -47.9454 -47.9407 -47.9380
   -47.9243 -47.9195 -47.9155 -47.9129 -47.9007 -47.8997 -47.8936 -47.8932
   -47.8914 -47.8909 -47.8874 -47.8870  -4.8058  -4.5037  -4.0201  -3.4497
    -3.2742  -2.9522  -2.8256  -2.4302  -2.2707  -2.2383  -2.0914  -1.9551
    -1.9318  -1.8464  -1.4541  -1.4341  -1.2160  -1.0616  -1.0195  -0.9810
    -0.9326  -0.8266  -0.6941  -0.6322  -0.5568  -0.5048  -0.2263  -0.1668
    -0.0591   0.0479   0.0848   0.2174   0.3379   0.4100   0.5838

     occupation numbers 
     1.0000   1.0000   1.0000   1.0000   1.0000   1.0000   1.0000   1.0000
     1.0000   1.0000   1.0000   1.0000   1.0000   1.0000   1.0000   1.0000
     1.0000   1.0000   1.0000   1.0000   1.0000   1.0000   1.0000   1.0000
     1.0000   1.0000   1.0000   1.0000   1.0000   1.0000   1.0000   1.0000
     1.0000   1.0000   1.0000   1.0000   1.0000   1.0000   1.0000   1.0000
     1.0000   1.0004   0.6764   0.5663   0.0069   0.0000   0.0000   0.0000
     0.0000   0.0000   0.0000   0.0000   0.0000   0.0000   0.0000   0.0000
     0.0000   0.0000   0.0000   0.0000   0.0000   0.0000   0.0000

          k = 0.0909 0.1903 0.0000 (186330 PWs)   bands (ev):

   -48.2858 -48.2851 -48.2779 -48.2772 -48.2276 -48.2273 -48.2200 -48.2197
   -48.0182 -48.0179 -48.0104 -48.0101 -47.9496 -47.9454 -47.9407 -47.9380
   -47.9246 -47.9192 -47.9156 -47.9128 -47.9008 -47.8998 -47.8935 -47.8931
   -47.8914 -47.8909 -47.8874 -47.8870  -4.7230  -4.4196  -3.9333  -3.6469
    -3.3568  -3.3231  -2.8027  -2.7357  -2.2323  -2.1992  -2.0234  -1.9205
    -1.7774  -1.6288  -1.4062  -1.3796  -1.1798  -0.9782  -0.9282  -0.9100
    -0.8400  -0.8019  -0.7019  -0.6641  -0.5236  -0.4223  -0.3136  -0.1399
    -0.0462   0.1013   0.1682   0.2299   0.3209   0.4859   0.5032

     occupation numbers 
     1.0000   1.0000   1.0000   1.0000   1.0000   1.0000   1.0000   1.0000
     1.0000   1.0000   1.0000   1.0000   1.0000   1.0000   1.0000   1.0000
     1.0000   1.0000   1.0000   1.0000   1.0000   1.0000   1.0000   1.0000
     1.0000   1.0000   1.0000   1.0000   1.0000   1.0000   1.0000   1.0000
     1.0000   1.0000   1.0000   1.0000   1.0000   1.0000   1.0000   1.0000
     1.0042   1.0721   0.4164   0.2908   0.0021   0.0000   0.0000   0.0000
     0.0000   0.0000   0.0000   0.0000   0.0000   0.0000   0.0000   0.0000
     0.0000   0.0000   0.0000   0.0000   0.0000   0.0000   0.0000

          k = 0.0909 0.2794 0.0000 (186389 PWs)   bands (ev):

   -48.2858 -48.2851 -48.2779 -48.2772 -48.2276 -48.2273 -48.2200 -48.2197
   -48.0182 -48.0179 -48.0104 -48.0101 -47.9495 -47.9453 -47.9407 -47.9380
   -47.9249 -47.9190 -47.9157 -47.9127 -47.9008 -47.8998 -47.8934 -47.8930
   -47.8914 -47.8909 -47.8874 -47.8870  -4.5896  -4.2845  -3.9672  -3.7998
    -3.6408  -3.2211  -3.1217  -2.6060  -2.5147  -2.1813  -2.0024  -1.8649
    -1.7856  -1.3500  -1.3376  -1.2332  -1.0710  -0.9695  -0.9528  -0.8860
    -0.7950  -0.7501  -0.6760  -0.5586  -0.4569  -0.4457  -0.3187  -0.1149
    -0.0860  -0.0348   0.2582   0.3379   0.4754   0.5452   0.5562

     occupation numbers 
     1.0000   1.0000   1.0000   1.0000   1.0000   1.0000   1.0000   1.0000
     1.0000   1.0000   1.0000   1.0000   1.0000   1.0000   1.0000   1.0000
     1.0000   1.0000   1.0000   1.0000   1.0000   1.0000   1.0000   1.0000
     1.0000   1.0000   1.0000   1.0000   1.0000   1.0000   1.0000   1.0000
     1.0000   1.0000   1.0000   1.0000   1.0000   1.0000   1.0000   1.0002
     1.0033   0.1799   0.1436   0.0115   0.0000   0.0000   0.0000   0.0000
     0.0000   0.0000   0.0000   0.0000   0.0000   0.0000   0.0000   0.0000
     0.0000   0.0000   0.0000   0.0000   0.0000   0.0000   0.0000

          k = 0.0909 0.3685 0.0000 (186431 PWs)   bands (ev):

   -48.2858 -48.2851 -48.2779 -48.2772 -48.2276 -48.2273 -48.2200 -48.2197
   -48.0182 -48.0179 -48.0104 -48.0101 -47.9495 -47.9453 -47.9407 -47.9380
   -47.9251 -47.9189 -47.9157 -47.9127 -47.9009 -47.8998 -47.8934 -47.8930
   -47.8914 -47.8909 -47.8874 -47.8870  -4.4056  -4.2414  -4.0952  -3.9301
    -3.5918  -3.4199  -3.0041  -2.8235  -2.3963  -2.2082  -2.0874  -1.7677
    -1.7261  -1.4319  -1.3388  -1.2230  -1.0815  -0.9734  -0.9405  -0.8040
    -0.7575  -0.6403  -0.6192  -0.5508  -0.4354  -0.3770  -0.2336  -0.1888
    -0.1171  -0.0370   0.2667   0.4331   0.5734   0.6249   0.7318

     occupation numbers 
     1.0000   1.0000   1.0000   1.0000   1.0000   1.0000   1.0000   1.0000
     1.0000   1.0000   1.0000   1.0000   1.0000   1.0000   1.0000   1.0000
     1.0000   1.0000   1.0000   1.0000   1.0000   1.0000   1.0000   1.0000
     1.0000   1.0000   1.0000   1.0000   1.0000   1.0000   1.0000   1.0000
     1.0000   1.0000   1.0000   1.0000   1.0000   1.0000   1.0000   1.0055
     1.0156   0.5542   0.1469   0.0085   0.0000   0.0000   0.0000   0.0000
     0.0000   0.0000   0.0000   0.0000   0.0000   0.0000   0.0000   0.0000
     0.0000   0.0000   0.0000   0.0000   0.0000   0.0000   0.0000

          k = 0.0909-0.3442 0.0000 (186485 PWs)   bands (ev):

   -48.2858 -48.2851 -48.2779 -48.2772 -48.2276 -48.2273 -48.2200 -48.2197
   -48.0182 -48.0179 -48.0104 -48.0101 -47.9495 -47.9453 -47.9407 -47.9380
   -47.9251 -47.9189 -47.9157 -47.9127 -47.9009 -47.8998 -47.8934 -47.8930
   -47.8914 -47.8909 -47.8874 -47.8870  -4.4609  -4.1804  -4.1421  -3.8632
    -3.6458  -3.3507  -3.0611  -2.7527  -2.4484  -2.1471  -1.9537  -1.7483
    -1.6424  -1.5705  -1.4011  -1.3282  -1.0469  -1.0315  -0.9904  -0.9367
    -0.7777  -0.7155  -0.6734  -0.5441  -0.4150  -0.3749  -0.2296  -0.1766
    -0.1137   0.0897   0.2775   0.4484   0.5086   0.6681   0.7085

     occupation numbers 
     1.0000   1.0000   1.0000   1.0000   1.0000   1.0000   1.0000   1.0000
     1.0000   1.0000   1.0000   1.0000   1.0000   1.0000   1.0000   1.0000
     1.0000   1.0000   1.0000   1.0000   1.0000   1.0000   1.0000   1.0000
     1.0000   1.0000   1.0000   1.0000   1.0000   1.0000   1.0000   1.0000
     1.0000   1.0000   1.0000   1.0000   1.0000   1.0000   1.0000   1.0092
     1.0635   1.0738   0.3906   0.1196   0.0000   0.0000   0.0000   0.0000
     0.0000   0.0000   0.0000   0.0000   0.0000   0.0000   0.0000   0.0000
     0.0000   0.0000   0.0000   0.0000   0.0000   0.0000   0.0000

          k = 0.0909-0.2551 0.0000 (186443 PWs)   bands (ev):

   -48.2858 -48.2851 -48.2779 -48.2772 -48.2276 -48.2273 -48.2200 -48.2197
   -48.0182 -48.0179 -48.0104 -48.0101 -47.9495 -47.9453 -47.9407 -47.9380
   -47.9249 -47.9190 -47.9157 -47.9127 -47.9008 -47.8998 -47.8934 -47.8931
   -47.8914 -47.8909 -47.8874 -47.8870  -4.6310  -4.3259  -3.8839  -3.8380
    -3.5618  -3.2574  -3.0453  -2.6390  -2.4403  -1.9855  -1.8021  -1.7858
    -1.7591  -1.5210  -1.4666  -1.4417  -1.2248  -1.0923  -1.0843  -1.0382
    -0.8693  -0.8207  -0.7891  -0.6663  -0.5246  -0.3451  -0.2994  -0.1132
    -0.0543   0.2231   0.2866   0.2900   0.4323   0.5454   0.7335

     occupation numbers 
     1.0000   1.0000   1.0000   1.0000   1.0000   1.0000   1.0000   1.0000
     1.0000   1.0000   1.0000   1.0000   1.0000   1.0000   1.0000   1.0000
     1.0000   1.0000   1.0000   1.0000   1.0000   1.0000   1.0000   1.0000
     1.0000   1.0000   1.0000   1.0000   1.0000   1.0000   1.0000   1.0000
     1.0000   1.0000   1.0000   1.0000   1.0000   1.0000   1.0020   1.0033
     1.0069   0.9781   0.7437   0.6085   0.0090   0.0001   0.0000   0.0000
     0.0000   0.0000   0.0000   0.0000   0.0000   0.0000   0.0000   0.0000
     0.0000   0.0000   0.0000   0.0000   0.0000   0.0000   0.0000

          k = 0.0909-0.1660 0.0000 (186362 PWs)   bands (ev):

   -48.2858 -48.2851 -48.2779 -48.2772 -48.2276 -48.2273 -48.2200 -48.2197
   -48.0182 -48.0179 -48.0104 -48.0101 -47.9496 -47.9454 -47.9407 -47.9380
   -47.9246 -47.9193 -47.9156 -47.9128 -47.9007 -47.8998 -47.8935 -47.8931
   -47.8914 -47.8909 -47.8874 -47.8870  -4.7506  -4.4473  -3.9614  -3.5502
    -3.3848  -3.2268  -2.7652  -2.7054  -2.1105  -2.0418  -1.9786  -1.9098
    -1.6974  -1.6537  -1.5785  -1.4212  -1.3230  -1.2025  -1.1828  -1.0398
    -0.9928  -0.8537  -0.7998  -0.6758  -0.6275  -0.4546  -0.2640  -0.1692
     0.0547   0.1162   0.1285   0.2864   0.4467   0.4805   0.6280

     occupation numbers 
     1.0000   1.0000   1.0000   1.0000   1.0000   1.0000   1.0000   1.0000
     1.0000   1.0000   1.0000   1.0000   1.0000   1.0000   1.0000   1.0000
     1.0000   1.0000   1.0000   1.0000   1.0000   1.0000   1.0000   1.0000
     1.0000   1.0000   1.0000   1.0000   1.0000   1.0000   1.0000   1.0000
     1.0000   1.0000   1.0000   1.0000   1.0000   1.0000   1.0000   1.0000
     1.0282   1.0558   1.0791   0.4957   0.1080   0.0044   0.0023   0.0000
     0.0000   0.0000   0.0000   0.0000   0.0000   0.0000   0.0000   0.0000
     0.0000   0.0000   0.0000   0.0000   0.0000   0.0000   0.0000

          k = 0.0909-0.0769 0.0000 (186293 PWs)   bands (ev):

   -48.2858 -48.2851 -48.2779 -48.2772 -48.2276 -48.2273 -48.2200 -48.2197
   -48.0182 -48.0179 -48.0104 -48.0101 -47.9497 -47.9454 -47.9407 -47.9380
   -47.9243 -47.9195 -47.9155 -47.9128 -47.9007 -47.8997 -47.8936 -47.8932
   -47.8914 -47.8909 -47.8874 -47.8870  -4.8196  -4.5175  -4.0342  -3.4638
    -3.1640  -2.8433  -2.8392  -2.4024  -2.3246  -2.1114  -2.1046  -2.0764
    -1.8174  -1.7820  -1.5233  -1.3879  -1.3400  -1.2050  -1.1521  -1.0543
    -0.9748  -0.8685  -0.8363  -0.7107  -0.5838  -0.4817  -0.2336  -0.2297
    -0.1062   0.0275   0.1996   0.2264   0.3894   0.5509   0.5708

     occupation numbers 
     1.0000   1.0000   1.0000   1.0000   1.0000   1.0000   1.0000   1.0000
     1.0000   1.0000   1.0000   1.0000   1.0000   1.0000   1.0000   1.0000
     1.0000   1.0000   1.0000   1.0000   1.0000   1.0000   1.0000   1.0000
     1.0000   1.0000   1.0000   1.0000   1.0000   1.0000   1.0000   1.0000
     1.0000   1.0000   1.0000   1.0000   1.0000   1.0000   1.0000   1.0000
     1.0012   1.0037   0.9852   0.3276   0.1502   0.0048   0.0007   0.0000
     0.0000   0.0000   0.0000   0.0000   0.0000   0.0000   0.0000   0.0000
     0.0000   0.0000   0.0000   0.0000   0.0000   0.0000   0.0000

          k = 0.1818 0.0243 0.0000 (186409 PWs)   bands (ev):

   -48.2853 -48.2846 -48.2784 -48.2777 -48.2272 -48.2268 -48.2205 -48.2201
   -48.0177 -48.0175 -48.0108 -48.0106 -47.9492 -47.9449 -47.9413 -47.9385
   -47.9236 -47.9192 -47.9161 -47.9133 -47.9001 -47.8992 -47.8932 -47.8928
   -47.8920 -47.8915 -47.8878 -47.8874  -4.7574  -4.4539  -3.9674  -3.3922
    -2.8367  -2.7650  -2.6987  -2.5894  -2.5104  -2.3838  -2.2685  -2.0299
    -1.9829  -1.8658  -1.7658  -1.4230  -1.3973  -1.2440  -1.0978  -1.0190
    -1.0005  -0.6594  -0.5922  -0.5228  -0.5003  -0.3876  -0.3534  -0.1576
    -0.1275  -0.0620   0.1092   0.2203   0.2813   0.3773   0.4764

     occupation numbers 
     1.0000   1.0000   1.0000   1.0000   1.0000   1.0000   1.0000   1.0000
     1.0000   1.0000   1.0000   1.0000   1.0000   1.0000   1.0000   1.0000
     1.0000   1.0000   1.0000   1.0000   1.0000   1.0000   1.0000   1.0000
     1.0000   1.0000   1.0000   1.0000   1.0000   1.0000   1.0000   1.0000
     1.0000   1.0000   1.0000   1.0000   1.0000   1.0000   1.0000   1.0000
     1.0000   1.0002   1.0058   0.5054   0.3720   0.0158   0.0001   0.0000
     0.0000   0.0000   0.0000   0.0000   0.0000   0.0000   0.0000   0.0000
     0.0000   0.0000   0.0000   0.0000   0.0000   0.0000   0.0000

          k = 0.1818 0.1134 0.0000 (186374 PWs)   bands (ev):

   -48.2853 -48.2846 -48.2784 -48.2777 -48.2272 -48.2268 -48.2205 -48.2201
   -48.0177 -48.0174 -48.0108 -48.0106 -47.9491 -47.9449 -47.9413 -47.9385
   -47.9238 -47.9190 -47.9161 -47.9132 -47.9001 -47.8992 -47.8932 -47.8928
   -47.8920 -47.8915 -47.8878 -47.8874  -4.7183  -4.4143  -3.9266  -3.3519
    -3.2451  -2.9223  -2.7340  -2.7226  -2.4158  -2.3944  -2.1180  -1.9903
    -1.8888  -1.8164  -1.7793  -1.3279  -1.2706  -1.1260  -1.0745  -0.9695
    -0.7380  -0.7189  -0.6494  -0.5871  -0.4869  -0.4403  -0.3965  -0.1238
    -0.0608  -0.0329   0.0666   0.1654   0.3325   0.3695   0.5252

     occupation numbers 
     1.0000   1.0000   1.0000   1.0000   1.0000   1.0000   1.0000   1.0000
     1.0000   1.0000   1.0000   1.0000   1.0000   1.0000   1.0000   1.0000
     1.0000   1.0000   1.0000   1.0000   1.0000   1.0000   1.0000   1.0000
     1.0000   1.0000   1.0000   1.0000   1.0000   1.0000   1.0000   1.0000
     1.0000   1.0000   1.0000   1.0000   1.0000   1.0000   1.0000   1.0000
     1.0001   1.0013   1.0040   0.1191   0.0324   0.0003   0.0000   0.0000
     0.0000   0.0000   0.0000   0.0000   0.0000   0.0000   0.0000   0.0000
     0.0000   0.0000   0.0000   0.0000   0.0000   0.0000   0.0000

          k = 0.1818 0.2025 0.0000 (186449 PWs)   bands (ev):

   -48.2853 -48.2846 -48.2784 -48.2777 -48.2272 -48.2268 -48.2205 -48.2201
   -48.0177 -48.0174 -48.0108 -48.0106 -47.9491 -47.9449 -47.9413 -47.9384
   -47.9241 -47.9188 -47.9162 -47.9132 -47.9002 -47.8992 -47.8931 -47.8927
   -47.8920 -47.8915 -47.8878 -47.8874  -4.6285  -4.3232  -3.8330  -3.6133
    -3.2883  -3.2496  -2.7624  -2.7208  -2.6256  -2.3991  -2.1508  -1.9184
    -1.8637  -1.6212  -1.5458  -1.2435  -1.2425  -1.1002  -1.0867  -0.8255
    -0.8021  -0.7854  -0.6422  -0.5520  -0.4578  -0.3711  -0.3067  -0.2081
    -0.0293   0.1900   0.2271   0.2454   0.2937   0.4444   0.6056

     occupation numbers 
     1.0000   1.0000   1.0000   1.0000   1.0000   1.0000   1.0000   1.0000
     1.0000   1.0000   1.0000   1.0000   1.0000   1.0000   1.0000   1.0000
     1.0000   1.0000   1.0000   1.0000   1.0000   1.0000   1.0000   1.0000
     1.0000   1.0000   1.0000   1.0000   1.0000   1.0000   1.0000   1.0000
     1.0000   1.0000   1.0000   1.0000   1.0000   1.0000   1.0000   1.0000
     1.0002   1.0762   1.0406   0.0155   0.0151   0.0001   0.0000   0.0000
     0.0000   0.0000   0.0000   0.0000   0.0000   0.0000   0.0000   0.0000
     0.0000   0.0000   0.0000   0.0000   0.0000   0.0000   0.0000

          k = 0.1818 0.2916 0.0000 (186554 PWs)   bands (ev):

   -48.2853 -48.2846 -48.2784 -48.2777 -48.2272 -48.2268 -48.2205 -48.2201
   -48.0177 -48.0174 -48.0108 -48.0106 -47.9490 -47.9449 -47.9413 -47.9384
   -47.9244 -47.9186 -47.9163 -47.9131 -47.9003 -47.8993 -47.8930 -47.8926
   -47.8920 -47.8915 -47.8877 -47.8873  -4.4879  -4.1814  -3.9270  -3.6997
    -3.5914  -3.1281  -3.0550  -2.6600  -2.5125  -2.4389  -2.3346  -1.9235
    -1.7919  -1.6916  -1.4660  -1.2396  -1.2200  -1.1141  -1.0942  -0.8216
    -0.7588  -0.6819  -0.5807  -0.4187  -0.3287  -0.2707  -0.2042  -0.1892
    -0.0159   0.1076   0.3505   0.3722   0.4679   0.5940   0.6627

     occupation numbers 
     1.0000   1.0000   1.0000   1.0000   1.0000   1.0000   1.0000   1.0000
     1.0000   1.0000   1.0000   1.0000   1.0000   1.0000   1.0000   1.0000
     1.0000   1.0000   1.0000   1.0000   1.0000   1.0000   1.0000   1.0000
     1.0000   1.0000   1.0000   1.0000   1.0000   1.0000   1.0000   1.0000
     1.0000   1.0000   1.0000   1.0000   1.0000   1.0000   1.0000   1.0000
     1.0027   1.0313   0.7403   0.0139   0.0077   0.0002   0.0001   0.0000
     0.0000   0.0000   0.0000   0.0000   0.0000   0.0000   0.0000   0.0000
     0.0000   0.0000   0.0000   0.0000   0.0000   0.0000   0.0000

          k = 0.1818 0.3806 0.0000 (186504 PWs)   bands (ev):

   -48.2853 -48.2846 -48.2784 -48.2777 -48.2272 -48.2268 -48.2205 -48.2201
   -48.0177 -48.0174 -48.0108 -48.0106 -47.9490 -47.9449 -47.9413 -47.9384
   -47.9246 -47.9185 -47.9163 -47.9131 -47.9003 -47.8993 -47.8930 -47.8926
   -47.8920 -47.8915 -47.8877 -47.8873  -4.2968  -4.1943  -3.9853  -3.8813
    -3.4774  -3.3677  -2.8829  -2.7660  -2.5525  -2.2746  -2.2237  -2.1400
    -1.7891  -1.6821  -1.6197  -1.4690  -1.3471  -1.0961  -0.9157  -0.8531
[...]
     atom   20 type  1   force =    -0.00011251    0.00021506   -0.00036710
     atom   21 type  1   force =    -0.00012187   -0.00025660    0.00037141
     atom   22 type  1   force =    -0.00011272    0.00000032    0.00011501
     atom   23 type  1   force =     0.00012041   -0.00000351   -0.00011694
     atom   24 type  1   force =     0.00010979    0.00026398   -0.00037369
     atom   25 type  1   force =     0.00010873   -0.00021283    0.00038035
     atom   26 type  1   force =    -0.00003645   -0.00007570    0.00012230
     atom   27 type  1   force =    -0.00011878    0.00019375   -0.00015130
     atom   28 type  1   force =    -0.00014131   -0.00018570   -0.00034156
     The non-local contrib.  to forces
     atom    1 type  1   force =     0.00029958   -0.01349454    0.03172968
     atom    2 type  1   force =    -0.00030519    0.01351659   -0.03172686
     atom    3 type  1   force =    -0.00018049   -0.01336806   -0.03395140
     atom    4 type  1   force =     0.00063682    0.00399388   -0.01132387
     atom    5 type  1   force =    -0.00141342   -0.00370782    0.00499035
     atom    6 type  1   force =     0.00144090    0.00138950    0.00054354
     atom    7 type  1   force =    -0.00070081   -0.00197078    0.00040760
     atom    8 type  1   force =     0.00000006    0.00118657    0.00533391
     atom    9 type  1   force =    -0.00000806   -0.00119922   -0.00536100
     atom   10 type  1   force =     0.00072062    0.00197032   -0.00036638
     atom   11 type  1   force =    -0.00143773   -0.00137517   -0.00051925
     atom   12 type  1   force =     0.00139263    0.00371446   -0.00497497
     atom   13 type  1   force =    -0.00062588   -0.00400658    0.01134083
     atom   14 type  1   force =     0.00017812    0.01335660    0.03393934
     atom   15 type  1   force =     0.00029853   -0.01349477    0.03172982
     atom   16 type  1   force =    -0.00029902    0.01351680   -0.03172769
     atom   17 type  1   force =    -0.00018085   -0.01336820   -0.03395398
     atom   18 type  1   force =     0.00063649    0.00399029   -0.01132572
     atom   19 type  1   force =    -0.00140879   -0.00370551    0.00498647
     atom   20 type  1   force =     0.00143458    0.00138655    0.00054329
     atom   21 type  1   force =    -0.00070321   -0.00197010    0.00040842
     atom   22 type  1   force =     0.00000006    0.00118773    0.00533857
     atom   23 type  1   force =    -0.00000803   -0.00119910   -0.00535828
     atom   24 type  1   force =     0.00071893    0.00197034   -0.00036618
     atom   25 type  1   force =    -0.00143468   -0.00137446   -0.00051962
     atom   26 type  1   force =     0.00139336    0.00371538   -0.00497571
     atom   27 type  1   force =    -0.00062612   -0.00400749    0.01133978
     atom   28 type  1   force =     0.00017805    0.01335674    0.03393854
     The ionic contribution  to forces
     atom    1 type  1   force =     0.00106881   -0.22963547   12.96547990
     atom    2 type  1   force =    -0.00107975    0.22993264  -12.96623376
     atom    3 type  1   force =     0.00175756   -0.34091703  -12.07419357
     atom    4 type  1   force =    -0.00028166    0.12356516   -9.77647543
     atom    5 type  1   force =     0.00586374    0.01610538   -7.33850617
     atom    6 type  1   force =    -0.00586607   -0.04530331   -5.45677506
     atom    7 type  1   force =     0.00191941    0.01642693   -3.35584381
     atom    8 type  1   force =    -0.00116281    0.01796970   -0.76433667
     atom    9 type  1   force =     0.00123321   -0.01800099    0.76320615
     atom   10 type  1   force =    -0.00199674   -0.01655071    3.35686325
     atom   11 type  1   force =     0.00587491    0.04560459    5.45671580
     atom   12 type  1   force =    -0.00581479   -0.01608879    7.33635567
     atom   13 type  1   force =     0.00019524   -0.12373347    9.77884788
     atom   14 type  1   force =    -0.00173221    0.34063790   12.07487758
     atom   15 type  1   force =     0.00105159   -0.22963746   12.96548385
     atom   16 type  1   force =    -0.00097764    0.22994039  -12.96623162
     atom   17 type  1   force =     0.00174903   -0.34090399  -12.07423221
     atom   18 type  1   force =    -0.00028830    0.12350150   -9.77648335
     atom   19 type  1   force =     0.00597715    0.01615187   -7.33848344
     atom   20 type  1   force =    -0.00600325   -0.04536671   -5.45676822
     atom   21 type  1   force =     0.00187445    0.01643674   -3.35581785
     atom   22 type  1   force =    -0.00116963    0.01798075   -0.76435827
     atom   23 type  1   force =     0.00123530   -0.01799840    0.76323294
     atom   24 type  1   force =    -0.00203203   -0.01655730    3.35688238
     atom   25 type  1   force =     0.00594433    0.04562271    5.45672301
     atom   26 type  1   force =    -0.00579572   -0.01607657    7.33635964
     atom   27 type  1   force =     0.00019141   -0.12374510    9.77883713
     atom   28 type  1   force =    -0.00173554    0.34063903   12.07487426
     The local contribution  to forces
     atom    1 type  1   force =    -0.00077796    0.21911320  -12.83691571
     atom    2 type  1   force =     0.00079537   -0.21942616   12.83803890
     atom    3 type  1   force =    -0.00125499    0.31465258   11.90634018
     atom    4 type  1   force =     0.00014485   -0.11371738    9.59452126
     atom    5 type  1   force =    -0.00424792   -0.01114582    7.21069703
     atom    6 type  1   force =     0.00416989    0.03975699    5.35700212
     atom    7 type  1   force =    -0.00125446   -0.01284583    3.29489878
     atom    8 type  1   force =     0.00103510   -0.01890880    0.74644517
     atom    9 type  1   force =    -0.00108992    0.01894732   -0.74511542
     atom   10 type  1   force =     0.00130280    0.01297605   -3.29573284
     atom   11 type  1   force =    -0.00418286   -0.04006258   -5.35674912
     atom   12 type  1   force =     0.00422653    0.01111278   -7.20835241
     atom   13 type  1   force =    -0.00007967    0.11390857   -9.59665699
     atom   14 type  1   force =     0.00123540   -0.31439485  -11.90680709
     atom   15 type  1   force =    -0.00076089    0.21911530  -12.83691951
     atom   16 type  1   force =     0.00069388   -0.21943355   12.83803338
     atom   17 type  1   force =    -0.00124683    0.31464070   11.90638082
     atom   18 type  1   force =     0.00015029   -0.11365493    9.59452926
     atom   19 type  1   force =    -0.00435911   -0.01119199    7.21067409
     atom   20 type  1   force =     0.00430587    0.03981892    5.35699505
     atom   21 type  1   force =    -0.00120893   -0.01285558    3.29487208
     atom   22 type  1   force =     0.00104121   -0.01892045    0.74646565
     atom   23 type  1   force =    -0.00109218    0.01894501   -0.74514334
     atom   24 type  1   force =     0.00133781    0.01298215   -3.29575241
     atom   25 type  1   force =    -0.00425137   -0.04008029   -5.35675661
     atom   26 type  1   force =     0.00420794    0.01110020   -7.20835639
     atom   27 type  1   force =    -0.00007632    0.11392055   -9.59664576
     atom   28 type  1   force =     0.00123857   -0.31439612  -11.90680356
     The core correction contribution to forces
     atom    1 type  1   force =     0.00000000    0.00000000    0.00000000
     atom    2 type  1   force =     0.00000000    0.00000000    0.00000000
     atom    3 type  1   force =     0.00000000    0.00000000    0.00000000
     atom    4 type  1   force =     0.00000000    0.00000000    0.00000000
     atom    5 type  1   force =     0.00000000    0.00000000    0.00000000
     atom    6 type  1   force =     0.00000000    0.00000000    0.00000000
     atom    7 type  1   force =     0.00000000    0.00000000    0.00000000
     atom    8 type  1   force =     0.00000000    0.00000000    0.00000000
     atom    9 type  1   force =     0.00000000    0.00000000    0.00000000
     atom   10 type  1   force =     0.00000000    0.00000000    0.00000000
     atom   11 type  1   force =     0.00000000    0.00000000    0.00000000
     atom   12 type  1   force =     0.00000000    0.00000000    0.00000000
     atom   13 type  1   force =     0.00000000    0.00000000    0.00000000
     atom   14 type  1   force =     0.00000000    0.00000000    0.00000000
     atom   15 type  1   force =     0.00000000    0.00000000    0.00000000
     atom   16 type  1   force =     0.00000000    0.00000000    0.00000000
     atom   17 type  1   force =     0.00000000    0.00000000    0.00000000
     atom   18 type  1   force =     0.00000000    0.00000000    0.00000000
     atom   19 type  1   force =     0.00000000    0.00000000    0.00000000
     atom   20 type  1   force =     0.00000000    0.00000000    0.00000000
     atom   21 type  1   force =     0.00000000    0.00000000    0.00000000
     atom   22 type  1   force =     0.00000000    0.00000000    0.00000000
     atom   23 type  1   force =     0.00000000    0.00000000    0.00000000
     atom   24 type  1   force =     0.00000000    0.00000000    0.00000000
     atom   25 type  1   force =     0.00000000    0.00000000    0.00000000
     atom   26 type  1   force =     0.00000000    0.00000000    0.00000000
     atom   27 type  1   force =     0.00000000    0.00000000    0.00000000
     atom   28 type  1   force =     0.00000000    0.00000000    0.00000000
     The Hubbard contrib.    to forces
     atom    1 type  1   force =     0.00000000    0.00000000    0.00000000
     atom    2 type  1   force =     0.00000000    0.00000000    0.00000000
     atom    3 type  1   force =     0.00000000    0.00000000    0.00000000
     atom    4 type  1   force =     0.00000000    0.00000000    0.00000000
     atom    5 type  1   force =     0.00000000    0.00000000    0.00000000
     atom    6 type  1   force =     0.00000000    0.00000000    0.00000000
     atom    7 type  1   force =     0.00000000    0.00000000    0.00000000
     atom    8 type  1   force =     0.00000000    0.00000000    0.00000000
     atom    9 type  1   force =     0.00000000    0.00000000    0.00000000
     atom   10 type  1   force =     0.00000000    0.00000000    0.00000000
     atom   11 type  1   force =     0.00000000    0.00000000    0.00000000
     atom   12 type  1   force =     0.00000000    0.00000000    0.00000000
     atom   13 type  1   force =     0.00000000    0.00000000    0.00000000
     atom   14 type  1   force =     0.00000000    0.00000000    0.00000000
     atom   15 type  1   force =     0.00000000    0.00000000    0.00000000
     atom   16 type  1   force =     0.00000000    0.00000000    0.00000000
     atom   17 type  1   force =     0.00000000    0.00000000    0.00000000
     atom   18 type  1   force =     0.00000000    0.00000000    0.00000000
     atom   19 type  1   force =     0.00000000    0.00000000    0.00000000
     atom   20 type  1   force =     0.00000000    0.00000000    0.00000000
     atom   21 type  1   force =     0.00000000    0.00000000    0.00000000
     atom   22 type  1   force =     0.00000000    0.00000000    0.00000000
     atom   23 type  1   force =     0.00000000    0.00000000    0.00000000
     atom   24 type  1   force =     0.00000000    0.00000000    0.00000000
     atom   25 type  1   force =     0.00000000    0.00000000    0.00000000
     atom   26 type  1   force =     0.00000000    0.00000000    0.00000000
     atom   27 type  1   force =     0.00000000    0.00000000    0.00000000
     atom   28 type  1   force =     0.00000000    0.00000000    0.00000000
     The SCF correction term to forces
     atom    1 type  1   force =     0.00000212   -0.00004858    0.00011960
     atom    2 type  1   force =    -0.00000150    0.00004796   -0.00012220
     atom    3 type  1   force =     0.00000713   -0.00005105   -0.00015478
     atom    4 type  1   force =     0.00000623   -0.00000439   -0.00009385
     atom    5 type  1   force =     0.00000252    0.00006728   -0.00011977
     atom    6 type  1   force =    -0.00000565   -0.00010708   -0.00003846
     atom    7 type  1   force =    -0.00000772    0.00009105   -0.00012890
     atom    8 type  1   force =    -0.00000529   -0.00008226    0.00010055
     atom    9 type  1   force =     0.00000543    0.00008304   -0.00002757
     atom   10 type  1   force =     0.00000592   -0.00008979    0.00018686
     atom   11 type  1   force =     0.00000531    0.00010296    0.00008115
     atom   12 type  1   force =    -0.00000092   -0.00006800    0.00015284
     atom   13 type  1   force =    -0.00000658    0.00000970    0.00011299
     atom   14 type  1   force =    -0.00000724    0.00004792    0.00015924
     atom   15 type  1   force =     0.00000199   -0.00004847    0.00011956
     atom   16 type  1   force =    -0.00000233    0.00004798   -0.00012193
     atom   17 type  1   force =     0.00000716   -0.00005109   -0.00015420
     atom   18 type  1   force =     0.00000601   -0.00000416   -0.00009333
     atom   19 type  1   force =     0.00000108    0.00006696   -0.00011902
     atom   20 type  1   force =    -0.00000371   -0.00010637   -0.00003849
     atom   21 type  1   force =    -0.00000648    0.00009107   -0.00012915
     atom   22 type  1   force =    -0.00000503   -0.00008240    0.00009949
     atom   23 type  1   force =     0.00000585    0.00008299   -0.00002847
     atom   24 type  1   force =     0.00000691   -0.00008964    0.00018663
     atom   25 type  1   force =     0.00000387    0.00010280    0.00008104
     atom   26 type  1   force =    -0.00000125   -0.00006809    0.00015319
     atom   27 type  1   force =    -0.00000630    0.00000959    0.00011335
     atom   28 type  1   force =    -0.00000686    0.00004797    0.00015946

     Total force =     0.001710     Total SCF correction =     0.000747
     SCF correction compared to forces is large: reduce conv_thr to get better values
     Energy error            =      5.3E-06 Ry
     Gradient error          =      3.8E-04 Ry/Bohr

     bfgs converged in   2 scf cycles and   1 bfgs steps
     (criteria: energy <  1.0E-05 Ry, force <  3.9E-04 Ry/Bohr)

     End of BFGS Geometry Optimization

     Final energy             =    -421.2888646558 Ry

     File ./Li/Lithium.bfgs deleted, as requested
Begin final coordinates

ATOMIC_POSITIONS (angstrom)
Li               0.2972689325       -0.1249226160       31.7052343593
Li              -0.2981407802        4.8962638908       20.0841294392
Li               0.8217673266        2.1629605332       20.6534563765
Li               1.0475898313        7.0183970294       21.7660333859
Li               1.6570700590        4.1941295888       22.6957540523
Li               0.0999664263        1.6794194995       23.5464924330
Li              -0.1378083974        6.3158260916       24.4355415542
Li               0.9881504913        3.7486163848       25.5617101192
Li               1.9878488655        1.0214823065       26.2298765652
Li               2.1218897150        5.8747105280       27.3566652122
Li              -0.0990721544        3.0909397996       28.2448715290
Li               1.3178481328        0.5764493171       29.0944134592
Li               0.9354088667        5.1729362177       30.0261080074
Li               2.1515990160        2.6078932734       31.1375930999
Li               3.2722111925       -0.1249237868       31.7052342336
Li               2.6767440922        4.8962522770       20.0841520622
Li               3.7967069305        2.1629427742       20.6534493102
Li               4.0225365756        7.0184308473       21.7660485189
Li               4.6319441772        4.1941012595       22.6957983427
Li               3.0749568733        1.6794612092       23.5464981118
Li               2.8371326832        6.3158255178       24.4355506361
Li               3.9630889947        3.7486138284       25.5616639513
Li               4.9627794961        1.0214793990       26.2298712407
Li               5.0968349377        5.8747153967       27.3566755822
Li               2.8758313242        3.0909298803       28.2448805325
Li               4.2927712810        0.5764425234       29.0944223729
Li               3.9103452319        5.1729380048       30.0261095094
Li               5.1265325043        2.6078960422       31.1375973815
End final coordinates



     Writing all to output data dir ./Li/Lithium.save/ :
     XML data file
     init_run     :     13.29s CPU     22.05s WALL (       1 calls)
     electrons    :    843.88s CPU   1097.57s WALL (       2 calls)
     update_pot   :      0.08s CPU      0.09s WALL (       1 calls)
     forces       :     13.58s CPU     14.85s WALL (       2 calls)

     Called by init_run:
     wfcinit      :      2.43s CPU      3.31s WALL (       1 calls)
     wfcinit:wfcr :      2.32s CPU      3.20s WALL (      25 calls)
     potinit      :      0.88s CPU      0.94s WALL (       1 calls)
     hinit0       :      4.97s CPU     12.65s WALL (       1 calls)

     Called by electrons:
     c_bands      :    681.39s CPU    898.05s WALL (      34 calls)
     sum_band     :     36.57s CPU     50.84s WALL (      34 calls)
     v_of_rho     :      1.69s CPU      2.00s WALL (      35 calls)
     v_h          :      0.16s CPU      0.19s WALL (      35 calls)
     v_xc         :      1.53s CPU      1.80s WALL (      35 calls)
     newd         :      0.74s CPU      0.79s WALL (      35 calls)
     PAW_pot      :      0.25s CPU      0.40s WALL (      36 calls)
     mix_rho      :      4.86s CPU      6.21s WALL (      34 calls)

     Called by c_bands:
     init_us_2    :      3.13s CPU      3.41s WALL (    1800 calls)
     cegterg      :    645.53s CPU    810.97s WALL (    1109 calls)

     Called by sum_band:
     sum_band:wei :      0.07s CPU      0.08s WALL (      34 calls)
     sum_band:loo :     35.53s CPU     49.65s WALL (      34 calls)
     sum_band:buf :      0.37s CPU      0.41s WALL (     850 calls)
     sum_band:ini :      1.32s CPU      1.39s WALL (     850 calls)
     sum_band:cal :      4.38s CPU      5.26s WALL (     875 calls)
     sum_band:bec :      0.08s CPU      0.09s WALL (     875 calls)
     addusdens    :      0.73s CPU      0.77s WALL (      34 calls)
                                        0.00s GPU  (      34 calls)
     addusd:skk   :      0.15s CPU      0.15s WALL (      34 calls)
                                        0.00s GPU  (      34 calls)

     Called by *egterg:
     cdiaghg      :    159.07s CPU    166.51s WALL (   14540 calls)
     cegterg:over :     37.58s CPU     42.83s WALL (   13619 calls)
     cegterg:upda :     24.24s CPU     25.44s WALL (   13619 calls)
     cegterg:last :      9.48s CPU      9.62s WALL (    1752 calls)
     h_psi        :    377.09s CPU    525.12s WALL (   14753 calls)
     s_psi        :     21.02s CPU     21.79s WALL (   14753 calls)
     g_psi        :      0.41s CPU      0.44s WALL (   13619 calls)

     Called by h_psi:
     h_psi:calbec :     32.79s CPU     40.97s WALL (   14753 calls)
     vloc_psi     :    319.76s CPU    457.60s WALL (   14753 calls)
                                        0.00s GPU  (   14753 calls)
     add_vuspsi   :     23.05s CPU     24.89s WALL (   14753 calls)

     General routines
     calbec       :     38.03s CPU     47.22s WALL (   15828 calls)
     fft          :      5.20s CPU     13.01s WALL (     457 calls)
     ffts         :      4.40s CPU      5.47s WALL (    3882 calls)
     fftw         :    336.96s CPU    483.41s WALL (  623584 calls)
     interpolate  :      0.94s CPU      0.96s WALL (      35 calls)

     Parallel routines

     PAW routines
     PAW_pot      :      0.25s CPU      0.40s WALL (      36 calls)

     Environ routines

     PWSCF        :  14m37.28s CPU  19m 2.30s WALL


   This run was terminated on:   3:42:15   5Jan2025            

=------------------------------------------------------------------------------=
   JOB DONE.
=------------------------------------------------------------------------------=
