
     Program PWSCF v.7.4 starts on  6Jan2025 at 13:35:36 
        Git branch: develop
        Last git commit: e877ff360aceba4b8d76ffc2fb1c70545fc5dd57
        Last git commit date: Sat Jan 4 12:56:15 2025 +0000
        Last git commit subject: Merge branch 'orthoU' into 'develop'

     This program is part of the open-source Quantum ESPRESSO suite
     for quantum simulation of materials; please cite
         "P. Giannozzi et al., J. Phys.:Condens. Matter 21 395502 (2009);
         "P. Giannozzi et al., J. Phys.:Condens. Matter 29 465901 (2017);
         "P. Giannozzi et al., J. Chem. Phys. 152 154105 (2020);
          URL http://www.quantum-espresso.org", 
     in publications or presentations arising from this work. More details at
     http://www.quantum-espresso.org/quote

     Parallel version (MPI), running on   360 processors

     MPI processes distributed on     9 nodes
     177562 MiB available memory on the printing compute node when the environment starts
 
     Reading input from espresso.pwi
Warning: card &CELL ignored
Warning: card    PRESS_CONV_THR   = 0.1 ignored
Warning: card    CELL_DOFREE      = 'ALL' ignored
Warning: card / ignored
Warning: card &FCP ignored
Warning: card / ignored
Warning: card &RISM ignored
Warning: card / ignored

     Current dimensions of program PWSCF are:
     Max number of different atomic species (ntypx) = 10
     Max number of k-points (npk) =  40000
     Max angular momentum in pseudopotentials (lmaxx) =  4

     IMPORTANT: XC functional enforced from input :
     Exchange-correlation= PBE
                           (   1   4   3   4   0   0   0)
     Any further DFT definition will be discarded
     Please, verify this is what you really want

 
     Reading input from environ.in:
     * using ionic solvent mode
     * setting boundary derivatives method to SSCS default
     * setting electrolyte-boundary derivatives method to SSCS default

Environ Warning (1001): card EOF ignored

     
     Found identity + ( -0.5000  0.0000 -0.0000) symmetry
     This is a supercell, fractional translations are disabled
 
     K-points division:     npool     =       2
     R & G space division:  proc/nbgrp/npool/nimage =     180
     Subspace diagonalization in iterative solution of the eigenvalue problem:
     a serial algorithm will be used

 
     Parallelization info
     --------------------
     sticks:   dense  smooth     PW     G-vecs:    dense   smooth      PW
     Min         103      41     10                59955    15155    1994
     Max         104      42     11                59998    15188    2055
     Sum       18577    7447   1945             10795351  2731157  365513
 
     Using Slab Decomposition
 


     bravais-lattice index     =            4
     lattice parameter (alat)  =      18.3607  a.u.
     unit-cell volume          =   28251.3786 (a.u.)^3
     number of atoms/cell      =           48
     number of atomic types    =            1
     number of electrons       =       144.00
     number of Kohn-Sham states=          108
     kinetic-energy cutoff     =      80.0000  Ry
     charge density cutoff     =     800.0000  Ry
     scf convergence threshold =      1.0E-06
     mixing beta               =       0.2000
     number of iterations used =            8  local-TF  mixing
     energy convergence thresh.=      1.0E-05
     force convergence thresh. =      3.9E-04
     Exchange-correlation= PBE
                           (   1   4   3   4   0   0   0)
     nstep                     =          999


     ================================================================================
 
                                  Environ Setup Summary

     ================================================================================
 
     Please cite

          O. Andreussi, I. Dabo and N. Marzari, J. Chem. Phys. 136, 064102 (2012)
          F. Nattino, M. Truscott, N. Marzari, and O. Andreussi, J. Chem. Phys. 150, 041722 (2019)

     in publications or presentations arising from this work.

     ================================================================================
 
     Parameters
     ==========

     compensation onset threshold      =               0.1000E+00
     static permittivity               =                    89.90
     surface tension in input (dyn/cm) =                    37.30
     surface tension in internal units =               0.4792E-04

     Solvent Boundary
     ================

     solvent mode                      =                    ionic
     derivatives method                =                   lowmem
     electrolyte derivatives method    =                   lowmem
     numerical core for derivatives    =                      fft
     switching function adopted        =                     SCCS
     density limit for vacuum region   =               0.5000E-02
     density limit for bulk solvent    =               0.1000E-03
     soft-sphere radius mode           =                    bondi
     soft-sphere softness              =                     0.50
     alpha                             =                     1.32

     Electrostatic Setup
     ===================

     electrostatic problem to solve    =                    modpb
     numerical solver adopted          =                   newton
     type of auxiliary density adopted =                     none
     numerical core for poisson        =                      fft
     adopting a nested solver scheme
     inner solver                      =                       cg
     inner core                        =                      fft
     type of pbc corrections           =                parabolic
     numerical core for corrections    =                      1da

     ================================================================================
 

     >>>>> Grand-Canonical SCF is activated <<<<<
     Initial Total Charge  =     0.000000 e
     Target Fermi Energy   =    -4.404000 eV
     Thr. of Fermi Energy  =     0.001000 eV
     Wave-shift of Kerker  =     0.400000 bohr^-1
     Wave-shift of Hartree =     1.500000 bohr^-1
     Mixing Rate of Fermi  =     0.050000

     celldm(1)=  18.360747  celldm(2)=   0.000000  celldm(3)=   5.270332
     celldm(4)=   0.000000  celldm(5)=   0.000000  celldm(6)=   0.000000

     crystal axes: (cart. coord. in units of alat)
               a(1) = (   1.000000   0.000000   0.000000 )  
               a(2) = (  -0.500000   0.866025   0.000000 )  
               a(3) = (   0.000000   0.000000   5.270332 )  

     reciprocal axes: (cart. coord. in units 2 pi/alat)
               b(1) = (  1.000000  0.577350  0.000000 )  
               b(2) = (  0.000000  1.154701  0.000000 )  
               b(3) = (  0.000000  0.000000  0.189741 )  


     PseudoPot. # 1 for Li read from file:
     /home/mmm1182/Repos/Pseudopotentials/pslibrary/Li.pbe-sl-kjpaw_psl.1.0.0.UPF
     MD5 check sum: f40bb4162937df3f7c561f1969c76545
     Pseudo is Projector augmented-wave, Zval =  3.0
     Generated using 'atomic' code by A. Dal Corso  v.7.3.1
     Shape of augmentation charge: PSQ
     Using radial grid of 1017 points,  4 beta functions with: 
                l(1) =   0
                l(2) =   0
                l(3) =   1
                l(4) =   1
     Q(r) pseudized with 0 coefficients 


     atomic species   valence    mass     pseudopotential
     Li                3.00     6.94000     Li( 1.00)

      2 Sym. Ops. (no inversion) found


                                    s                        frac. trans.

      isym =  1     identity                                     

 cryst.   s( 1) = (     1          0          0      )
                  (     0          1          0      )
                  (     0          0          1      )

 cart.    s( 1) = (  1.0000000  0.0000000  0.0000000 )
                  (  0.0000000  1.0000000  0.0000000 )
                  (  0.0000000  0.0000000  1.0000000 )


      isym =  2     inv. 180 deg rotation - cart. axis [1,0,0]   

 cryst.   s( 2) = (    -1          0          0      )
                  (     1          1          0      )
                  (     0          0          1      )

 cart.    s( 2) = ( -1.0000000  0.0000000  0.0000000 )
                  (  0.0000000  1.0000000  0.0000000 )
                  (  0.0000000  0.0000000  1.0000000 )


     point group C_s (m)    
     there are  2 classes
     the character table:

       E     s    
A'     1.00  1.00
A''    1.00 -1.00

     the symmetry operations in each class and the name of the first element:

     E        1
          identity                                               
     s        2
          inv. 180 deg rotation - cart. axis [1,0,0]             

   Cartesian axes

     site n.     atom                  positions (alat units)
         1        Li     tau(   1) = (  -0.0000000  -0.0000009   2.5896260  )
         2        Li     tau(   2) = (   0.2499979   0.1443410   2.1911062  )
         3        Li     tau(   3) = (   0.5000000   0.2886783   2.3634461  )
         4        Li     tau(   4) = (   0.0000000  -0.0000014   2.2786732  )
         5        Li     tau(   5) = (   0.2500011   0.1443401   2.4852499  )
         6        Li     tau(   6) = (   0.5000000   0.2886597   2.0366082  )
         7        Li     tau(   7) = (   0.0000000  -0.0000096   3.2336419  )
         8        Li     tau(   8) = (   0.2500014   0.1443349   2.7851220  )
         9        Li     tau(   9) = (   0.5000000   0.2886710   2.9916746  )
        10        Li     tau(  10) = (  -0.0000000  -0.0000003   2.9068854  )
        11        Li     tau(  11) = (   0.2500010   0.1443349   3.0792422  )
        12        Li     tau(  12) = (   0.5000000   0.2886756   2.6807400  )
        13        Li     tau(  13) = (   0.2499986   0.4330142   2.5896253  )
        14        Li     tau(  14) = (   0.5000000   0.5773516   2.1910851  )
        15        Li     tau(  15) = (   0.7500000   0.7216917   2.3634468  )
        16        Li     tau(  16) = (   0.2499985   0.4330179   2.2786716  )
        17        Li     tau(  17) = (   0.5000000   0.5773494   2.4852371  )
        18        Li     tau(  18) = (   0.7500000   0.7217071   2.0366065  )
        19        Li     tau(  19) = (   0.2499955   0.4330165   3.2336480  )
        20        Li     tau(  20) = (   0.5000000   0.5773512   2.7851135  )
        21        Li     tau(  21) = (   0.7499989   0.7216857   2.9916708  )
        22        Li     tau(  22) = (   0.2499988   0.4330097   2.9068875  )
        23        Li     tau(  23) = (   0.5000000   0.5773442   3.0792353  )
        24        Li     tau(  24) = (   0.7500012   0.7216888   2.6807368  )
        25        Li     tau(  25) = (   0.5000000  -0.0000008   2.5896259  )
        26        Li     tau(  26) = (   0.7500021   0.1443410   2.1911062  )
        27        Li     tau(  27) = (   1.0000000   0.2886754   2.3634483  )
        28        Li     tau(  28) = (   0.5000000   0.0000037   2.2786716  )
        29        Li     tau(  29) = (   0.7499989   0.1443401   2.4852499  )
        30        Li     tau(  30) = (   1.0000000   0.2886632   2.0366090  )
        31        Li     tau(  31) = (   0.5000000  -0.0000103   3.2336424  )
        32        Li     tau(  32) = (   0.7499986   0.1443349   2.7851221  )
        33        Li     tau(  33) = (   1.0000000   0.2886725   2.9916819  )
        34        Li     tau(  34) = (   0.5000000  -0.0000030   2.9068831  )
        35        Li     tau(  35) = (   0.7499990   0.1443349   3.0792422  )
        36        Li     tau(  36) = (   1.0000000   0.2886713   2.6807441  )
        37        Li     tau(  37) = (   0.7500014   0.4330142   2.5896253  )
        38        Li     tau(  38) = (   1.0000000   0.5773555   2.1910856  )
        39        Li     tau(  39) = (   1.2500000   0.7216917   2.3634468  )
        40        Li     tau(  40) = (   0.7500015   0.4330179   2.2786716  )
        41        Li     tau(  41) = (   1.0000000   0.5773499   2.4852361  )
        42        Li     tau(  42) = (   1.2500000   0.7217072   2.0366065  )
        43        Li     tau(  43) = (   0.7500045   0.4330165   3.2336480  )
        44        Li     tau(  44) = (   1.0000000   0.5773467   2.7851108  )
        45        Li     tau(  45) = (   1.2500011   0.7216857   2.9916708  )
        46        Li     tau(  46) = (   0.7500012   0.4330097   2.9068875  )
        47        Li     tau(  47) = (   1.0000000   0.5773495   3.0792274  )
        48        Li     tau(  48) = (   1.2499988   0.7216888   2.6807368  )

   Crystallographic axes

     site n.     atom                  positions (cryst. coord.)
         1        Li     tau(   1) = ( -0.0000005 -0.0000010  0.4913592  )
         2        Li     tau(   2) = (  0.3333332  0.1666706  0.4157435  )
         3        Li     tau(   3) = (  0.6666685  0.3333370  0.4484435  )
         4        Li     tau(   4) = ( -0.0000008 -0.0000016  0.4323586  )
         5        Li     tau(   5) = (  0.3333359  0.1666696  0.4715547  )
         6        Li     tau(   6) = (  0.6666578  0.3333155  0.3864288  )
         7        Li     tau(   7) = ( -0.0000055 -0.0000111  0.6135556  )
         8        Li     tau(   8) = (  0.3333332  0.1666636  0.5284529  )
         9        Li     tau(   9) = (  0.6666642  0.3333285  0.5676444  )
        10        Li     tau(  10) = ( -0.0000001 -0.0000003  0.5515564  )
        11        Li     tau(  11) = (  0.3333328  0.1666636  0.5842596  )
        12        Li     tau(  12) = (  0.6666669  0.3333338  0.5086473  )
        13        Li     tau(  13) = (  0.4999995  0.5000017  0.4913590  )
        14        Li     tau(  14) = (  0.8333341  0.6666682  0.4157395  )
        15        Li     tau(  15) = (  1.1666689  0.8333378  0.4484436  )
        16        Li     tau(  16) = (  0.5000015  0.5000060  0.4323583  )
        17        Li     tau(  17) = (  0.8333328  0.6666657  0.4715523  )
        18        Li     tau(  18) = (  1.1666778  0.8333556  0.3864285  )
        19        Li     tau(  19) = (  0.4999976  0.5000044  0.6135568  )
        20        Li     tau(  20) = (  0.8333338  0.6666677  0.5284513  )
        21        Li     tau(  21) = (  1.1666644  0.8333309  0.5676437  )
        22        Li     tau(  22) = (  0.4999971  0.4999966  0.5515568  )
        23        Li     tau(  23) = (  0.8333299  0.6666597  0.5842583  )
        24        Li     tau(  24) = (  1.1666684  0.8333344  0.5086467  )
        25        Li     tau(  25) = (  0.4999996 -0.0000009  0.4913592  )
        26        Li     tau(  26) = (  0.8333374  0.1666706  0.4157435  )
        27        Li     tau(  27) = (  1.1666668  0.3333336  0.4484439  )
        28        Li     tau(  28) = (  0.5000021  0.0000043  0.4323583  )
        29        Li     tau(  29) = (  0.8333337  0.1666696  0.4715547  )
        30        Li     tau(  30) = (  1.1666598  0.3333196  0.3864290  )
        31        Li     tau(  31) = (  0.4999940 -0.0000119  0.6135557  )
        32        Li     tau(  32) = (  0.8333304  0.1666636  0.5284529  )
        33        Li     tau(  33) = (  1.1666651  0.3333303  0.5676458  )
        34        Li     tau(  34) = (  0.4999983 -0.0000034  0.5515560  )
        35        Li     tau(  35) = (  0.8333308  0.1666636  0.5842596  )
        36        Li     tau(  36) = (  1.1666644  0.3333289  0.5086481  )
        37        Li     tau(  37) = (  1.0000022  0.5000017  0.4913590  )
        38        Li     tau(  38) = (  1.3333363  0.6666727  0.4157396  )
        39        Li     tau(  39) = (  1.6666689  0.8333378  0.4484436  )
        40        Li     tau(  40) = (  1.0000045  0.5000060  0.4323583  )
        41        Li     tau(  41) = (  1.3333331  0.6666662  0.4715521  )
        42        Li     tau(  42) = (  1.6666778  0.8333556  0.3864285  )
        43        Li     tau(  43) = (  1.0000067  0.5000044  0.6135568  )
        44        Li     tau(  44) = (  1.3333313  0.6666626  0.5284507  )
        45        Li     tau(  45) = (  1.6666665  0.8333309  0.5676437  )
        46        Li     tau(  46) = (  0.9999995  0.4999966  0.5515568  )
        47        Li     tau(  47) = (  1.3333329  0.6666658  0.5842568  )
        48        Li     tau(  48) = (  1.6666660  0.8333344  0.5086467  )

     number of k points=    16  Marzari-Vanderbilt smearing, width (Ry)=  0.0100
                       cart. coord. in units 2pi/alat
        k(    1) = (   0.0000000   0.0000000   0.0000000), wk =   0.0408163
        k(    2) = (   0.0000000   0.1649572   0.0000000), wk =   0.0816327
        k(    3) = (   0.0000000   0.3299144   0.0000000), wk =   0.0816327
        k(    4) = (   0.0000000   0.4948717   0.0000000), wk =   0.0816327
        k(    5) = (   0.1428571   0.2474358   0.0000000), wk =   0.1632653
        k(    6) = (   0.1428571   0.4123930   0.0000000), wk =   0.1632653
        k(    7) = (   0.1428571   0.5773503   0.0000000), wk =   0.0816327
        k(    8) = (   0.2857143   0.4948717   0.0000000), wk =   0.1632653
        k(    9) = (  -0.1428571   0.0824786   0.0000000), wk =   0.1632653
        k(   10) = (  -0.2857143   0.1649572   0.0000000), wk =   0.1632653
        k(   11) = (  -0.4285714   0.2474358   0.0000000), wk =   0.1632653
        k(   12) = (   0.2857143  -0.0000000   0.0000000), wk =   0.0816327
        k(   13) = (  -0.2857143   0.3299144   0.0000000), wk =   0.1632653
        k(   14) = (   0.4285714   0.0824786   0.0000000), wk =   0.1632653
        k(   15) = (  -0.4285714   0.4123930   0.0000000), wk =   0.1632653
        k(   16) = (   0.5714286  -0.0000000   0.0000000), wk =   0.0816327

                       cryst. coord.
        k(    1) = (   0.0000000   0.0000000   0.0000000), wk =   0.0408163
        k(    2) = (   0.0000000   0.1428571   0.0000000), wk =   0.0816327
        k(    3) = (   0.0000000   0.2857143   0.0000000), wk =   0.0816327
        k(    4) = (   0.0000000   0.4285714   0.0000000), wk =   0.0816327
        k(    5) = (   0.1428571   0.1428571   0.0000000), wk =   0.1632653
        k(    6) = (   0.1428571   0.2857143   0.0000000), wk =   0.1632653
        k(    7) = (   0.1428571   0.4285714   0.0000000), wk =   0.0816327
        k(    8) = (   0.2857143   0.2857143   0.0000000), wk =   0.1632653
        k(    9) = (  -0.1428571   0.1428571   0.0000000), wk =   0.1632653
        k(   10) = (  -0.2857143   0.2857143   0.0000000), wk =   0.1632653
        k(   11) = (  -0.4285714   0.4285714   0.0000000), wk =   0.1632653
        k(   12) = (   0.2857143  -0.1428571   0.0000000), wk =   0.0816327
        k(   13) = (  -0.2857143   0.4285714   0.0000000), wk =   0.1632653
        k(   14) = (   0.4285714  -0.1428571   0.0000000), wk =   0.1632653
        k(   15) = (  -0.4285714   0.5714286   0.0000000), wk =   0.1632653
        k(   16) = (   0.5714286  -0.2857143   0.0000000), wk =   0.0816327

     Dense  grid: 10795351 G-vectors     FFT dimensions: ( 180, 180, 900)

     Smooth grid:  2731157 G-vectors     FFT dimensions: ( 108, 108, 576)

     Dynamical RAM for                 wfc:       3.12 MB

     Dynamical RAM for     wfc (w. buffer):      28.12 MB

     Dynamical RAM for           str. fact:       0.91 MB

     Dynamical RAM for           local pot:       0.00 MB

     Dynamical RAM for          nlocal pot:      11.11 MB

     Dynamical RAM for                qrad:       0.65 MB

     Dynamical RAM for          rho,v,vnew:       6.45 MB

     Dynamical RAM for               rhoin:       2.15 MB

     Dynamical RAM for            rho*nmix:      14.64 MB

     Dynamical RAM for           G-vectors:       3.55 MB

     Dynamical RAM for          h,s,v(r/c):       8.54 MB

     Dynamical RAM for          <psi|beta>:       0.63 MB

     Dynamical RAM for                 psi:      12.50 MB

     Dynamical RAM for                hpsi:      12.50 MB

     Dynamical RAM for                spsi:      12.50 MB

     Dynamical RAM for      wfcinit/wfcrot:       6.52 MB

     Dynamical RAM for           addusdens:      42.09 MB

     Dynamical RAM for          addusforce:      85.13 MB

     Estimated static dynamical RAM per process >      60.95 MB

     Estimated max dynamical RAM per process >     164.72 MB

     Estimated total dynamical RAM >      53.93 GB

     Initial potential from superposition of free atoms

     starting charge     143.7788, renormalised to     144.0000

     negative rho (up, down):  4.772E-03 0.000E+00
     Starting wfcs are random
     Checking if some PAW data can be deallocated... 

     total cpu time spent up to now is       19.2 secs

     per-process dynamical memory:   235.7 Mb

     Self-consistent Calculation

     iteration #  1     ecut=    80.00 Ry     beta= 0.20
     Davidson diagonalization with overlap

---- Real-time Memory Report at c_bands before calling an iterative solver
          1117 MiB given to the printing process from OS
           230 MiB allocation reported by mallinfo(arena+hblkhd)
        169844 MiB available memory on the node where the printing process lives
------------------
     c_bands:  1 eigenvalues not converged
     c_bands:  1 eigenvalues not converged
     ethr =  1.00E-12,  avg # of iterations =134.8

     negative rho (up, down):  3.570E-03 0.000E+00

     total cpu time spent up to now is      167.8 secs

     total energy              =    -721.65890864 Ry
     estimated scf accuracy    <       0.16075323 Ry

     total charge of GC-SCF    =       0.12323361 e
     the Fermi energy          =      -4.51209528 eV
                        (error :       0.10809528 eV)
     electrostatic embedding   =       0.00000000 Ry
     cavitation energy         =       0.04103507 Ry
     electrolyte free energy   =       0.01215974 Ry
     correction to one-el term =       0.00000000 Ry

     iteration #  2     ecut=    80.00 Ry     beta= 0.20
     Davidson diagonalization with overlap

---- Real-time Memory Report at c_bands before calling an iterative solver
          1117 MiB given to the printing process from OS
           271 MiB allocation reported by mallinfo(arena+hblkhd)
        168169 MiB available memory on the node where the printing process lives
------------------
     ethr =  1.00E-05,  avg # of iterations = 11.9

     negative rho (up, down):  2.702E-03 0.000E+00

     add environment contribution to local potential

     total cpu time spent up to now is      195.1 secs

     total energy              =    -721.74992696 Ry
     estimated scf accuracy    <       0.05889199 Ry

     total charge of GC-SCF    =       0.24049798 e
     the Fermi energy          =      -3.83496922 eV
                        (error :       0.56903078 eV)
     electrostatic embedding   =       0.00098667 Ry
     cavitation energy         =       0.04103507 Ry
     electrolyte free energy   =       0.01215974 Ry
     correction to one-el term =       0.00000000 Ry

     iteration #  3     ecut=    80.00 Ry     beta= 0.20
     Davidson diagonalization with overlap

---- Real-time Memory Report at c_bands before calling an iterative solver
          1117 MiB given to the printing process from OS
           271 MiB allocation reported by mallinfo(arena+hblkhd)
        168151 MiB available memory on the node where the printing process lives
------------------
     ethr =  1.00E-05,  avg # of iterations = 30.4

     negative rho (up, down):  2.173E-03 0.000E+00

     add environment contribution to local potential

     total cpu time spent up to now is      232.5 secs

     total energy              =    -721.78399762 Ry
     estimated scf accuracy    <       0.03157211 Ry

     total charge of GC-SCF    =       0.39429138 e
     the Fermi energy          =      -3.10966692 eV
                        (error :       1.29433308 eV)
     electrostatic embedding   =      -0.03796194 Ry
     cavitation energy         =       0.04103507 Ry
     electrolyte free energy   =      -0.00565228 Ry
     correction to one-el term =      -7.38196175 Ry

     iteration #  4     ecut=    80.00 Ry     beta= 0.20
     Davidson diagonalization with overlap

---- Real-time Memory Report at c_bands before calling an iterative solver
          1117 MiB given to the printing process from OS
           272 MiB allocation reported by mallinfo(arena+hblkhd)
        168134 MiB available memory on the node where the printing process lives
------------------
     ethr =  1.00E-05,  avg # of iterations = 15.7

     negative rho (up, down):  1.696E-03 0.000E+00

     add environment contribution to local potential

     total cpu time spent up to now is      264.9 secs

     total energy              =    -721.69967689 Ry
     estimated scf accuracy    <       0.03424230 Ry

     total charge of GC-SCF    =       0.77653497 e
     the Fermi energy          =      -3.65578005 eV
                        (error :       0.74821995 eV)
     electrostatic embedding   =      -0.04105147 Ry
     cavitation energy         =       0.04103507 Ry
     electrolyte free energy   =      -0.00794203 Ry
     correction to one-el term =     -10.63549242 Ry

     iteration #  5     ecut=    80.00 Ry     beta= 0.20
     Davidson diagonalization with overlap

---- Real-time Memory Report at c_bands before calling an iterative solver
          1117 MiB given to the printing process from OS
           273 MiB allocation reported by mallinfo(arena+hblkhd)
        168115 MiB available memory on the node where the printing process lives
------------------
     ethr =  1.00E-05,  avg # of iterations = 19.8

     negative rho (up, down):  1.372E-03 0.000E+00

     add environment contribution to local potential

     total cpu time spent up to now is      298.2 secs

     total energy              =    -721.72127019 Ry
     estimated scf accuracy    <       0.00913063 Ry

     total charge of GC-SCF    =       1.53152811 e
     the Fermi energy          =      -3.22370958 eV
                        (error :       1.18029042 eV)
     electrostatic embedding   =      -0.07953950 Ry
     cavitation energy         =       0.04103507 Ry
     electrolyte free energy   =      -0.00646161 Ry
     correction to one-el term =     -21.52304604 Ry

     iteration #  6     ecut=    80.00 Ry     beta= 0.20
     Davidson diagonalization with overlap

---- Real-time Memory Report at c_bands before calling an iterative solver
          1117 MiB given to the printing process from OS
           273 MiB allocation reported by mallinfo(arena+hblkhd)
        168112 MiB available memory on the node where the printing process lives
------------------
     ethr =  6.41E-06,  avg # of iterations = 25.8

     negative rho (up, down):  3.050E-03 0.000E+00

     add environment contribution to local potential

     total cpu time spent up to now is      335.0 secs

     total energy              =    -721.96408730 Ry
     estimated scf accuracy    <       0.01681354 Ry

     total charge of GC-SCF    =       1.90425408 e
     the Fermi energy          =      -2.74799925 eV
                        (error :       1.65600075 eV)
     electrostatic embedding   =      -0.27159798 Ry
     cavitation energy         =       0.04103507 Ry
     electrolyte free energy   =      -0.00505135 Ry
     correction to one-el term =     -41.95946016 Ry

     iteration #  7     ecut=    80.00 Ry     beta= 0.20
     Davidson diagonalization with overlap

---- Real-time Memory Report at c_bands before calling an iterative solver
          1117 MiB given to the printing process from OS
           274 MiB allocation reported by mallinfo(arena+hblkhd)
        168099 MiB available memory on the node where the printing process lives
------------------
     ethr =  6.41E-06,  avg # of iterations =  9.6

     negative rho (up, down):  4.848E-03 0.000E+00

     add environment contribution to local potential

     total cpu time spent up to now is      360.9 secs

     total energy              =    -722.08290370 Ry
     estimated scf accuracy    <       0.00767231 Ry

     total charge of GC-SCF    =       2.00760845 e
     the Fermi energy          =      -2.91101923 eV
                        (error :       1.49298077 eV)
     electrostatic embedding   =      -0.40210702 Ry
     cavitation energy         =       0.04103507 Ry
     electrolyte free energy   =      -0.00693039 Ry
     correction to one-el term =     -53.42755542 Ry

     iteration #  8     ecut=    80.00 Ry     beta= 0.20
     Davidson diagonalization with overlap

---- Real-time Memory Report at c_bands before calling an iterative solver
          1117 MiB given to the printing process from OS
           274 MiB allocation reported by mallinfo(arena+hblkhd)
        168091 MiB available memory on the node where the printing process lives
------------------
     ethr =  5.40E-06,  avg # of iterations = 13.6

     negative rho (up, down):  1.109E-03 0.000E+00

     add environment contribution to local potential

     total cpu time spent up to now is      387.9 secs

     total energy              =    -721.97229253 Ry
     estimated scf accuracy    <       0.00435526 Ry

     total charge of GC-SCF    =       2.40657906 e
     the Fermi energy          =      -3.01792150 eV
                        (error :       1.38607850 eV)
     electrostatic embedding   =      -0.44155265 Ry
     cavitation energy         =       0.04103507 Ry
     electrolyte free energy   =      -0.00808596 Ry
     correction to one-el term =     -56.59133343 Ry

     iteration #  9     ecut=    80.00 Ry     beta= 0.20
     Davidson diagonalization with overlap

---- Real-time Memory Report at c_bands before calling an iterative solver
          1117 MiB given to the printing process from OS
           275 MiB allocation reported by mallinfo(arena+hblkhd)
        168039 MiB available memory on the node where the printing process lives
------------------
     ethr =  3.08E-06,  avg # of iterations = 13.4

     negative rho (up, down):  2.134E-02 0.000E+00

     add environment contribution to local potential

     total cpu time spent up to now is      420.6 secs

     total energy              =    -721.89960239 Ry
     estimated scf accuracy    <       0.02264897 Ry

     total charge of GC-SCF    =       3.25634323 e
     the Fermi energy          =      -2.98871357 eV
                        (error :       1.41528643 eV)
     electrostatic embedding   =      -0.64177934 Ry
     cavitation energy         =       0.04103507 Ry
     electrolyte free energy   =      -0.01135380 Ry
     correction to one-el term =     -71.06063355 Ry

     iteration # 10     ecut=    80.00 Ry     beta= 0.20
     Davidson diagonalization with overlap

---- Real-time Memory Report at c_bands before calling an iterative solver
          1117 MiB given to the printing process from OS
           275 MiB allocation reported by mallinfo(arena+hblkhd)
        168067 MiB available memory on the node where the printing process lives
------------------
     ethr =  3.08E-06,  avg # of iterations = 19.3

     negative rho (up, down):  9.699E-03 0.000E+00

     add environment contribution to local potential

     total cpu time spent up to now is      455.7 secs

     total energy              =    -722.13713049 Ry
     estimated scf accuracy    <       0.01903503 Ry

     total charge of GC-SCF    =       3.23958453 e
     the Fermi energy          =      -3.40160306 eV
                        (error :       1.00239694 eV)
     electrostatic embedding   =      -1.17517874 Ry
     cavitation energy         =       0.04103507 Ry
     electrolyte free energy   =      -0.02151007 Ry
     correction to one-el term =     -98.31236025 Ry

     iteration # 11     ecut=    80.00 Ry     beta= 0.20
     Davidson diagonalization with overlap

---- Real-time Memory Report at c_bands before calling an iterative solver
          1117 MiB given to the printing process from OS
           275 MiB allocation reported by mallinfo(arena+hblkhd)
        168058 MiB available memory on the node where the printing process lives
------------------
     ethr =  3.08E-06,  avg # of iterations = 13.3

     negative rho (up, down):  1.443E-03 0.000E+00

     add environment contribution to local potential

     total cpu time spent up to now is      488.9 secs

     total energy              =    -721.87256168 Ry
     estimated scf accuracy    <       0.01119212 Ry

     total charge of GC-SCF    =       4.28658932 e
     the Fermi energy          =      -3.43536538 eV
                        (error :       0.96863462 eV)
     electrostatic embedding   =      -1.16716110 Ry
     cavitation energy         =       0.04103507 Ry
     electrolyte free energy   =      -0.02152165 Ry
     correction to one-el term =     -97.89726822 Ry

     iteration # 12     ecut=    80.00 Ry     beta= 0.20
     Davidson diagonalization with overlap

---- Real-time Memory Report at c_bands before calling an iterative solver
          1117 MiB given to the printing process from OS
           275 MiB allocation reported by mallinfo(arena+hblkhd)
        168061 MiB available memory on the node where the printing process lives
------------------
     ethr =  3.08E-06,  avg # of iterations = 26.4

     negative rho (up, down):  1.143E-02 0.000E+00

     add environment contribution to local potential

     total cpu time spent up to now is      532.1 secs

     total energy              =    -722.07761355 Ry
     estimated scf accuracy    <       0.00580239 Ry

     total charge of GC-SCF    =       4.67463362 e
     the Fermi energy          =      -4.43809451 eV
                        (error :       0.03409451 eV)
     electrostatic embedding   =      -2.14636426 Ry
     cavitation energy         =       0.04103507 Ry
     electrolyte free energy   =      -0.03817035 Ry
     correction to one-el term =    -134.41061317 Ry

     iteration # 13     ecut=    80.00 Ry     beta= 0.20
     Davidson diagonalization with overlap

---- Real-time Memory Report at c_bands before calling an iterative solver
          1117 MiB given to the printing process from OS
           275 MiB allocation reported by mallinfo(arena+hblkhd)
        168069 MiB available memory on the node where the printing process lives
------------------
     ethr =  3.08E-06,  avg # of iterations = 14.7

     negative rho (up, down):  4.785E-02 0.000E+00

     add environment contribution to local potential

     total cpu time spent up to now is      567.8 secs

     total energy              =    -722.09387643 Ry
     estimated scf accuracy    <       0.00124461 Ry

     total charge of GC-SCF    =       4.96503268 e
     the Fermi energy          =      -4.50515461 eV
                        (error :       0.10115461 eV)
     electrostatic embedding   =      -2.50186764 Ry
     cavitation energy         =       0.04103507 Ry
     electrolyte free energy   =      -0.04489905 Ry
     correction to one-el term =    -143.94822115 Ry

     iteration # 14     ecut=    80.00 Ry     beta= 0.20
     Davidson diagonalization with overlap

---- Real-time Memory Report at c_bands before calling an iterative solver
          1117 MiB given to the printing process from OS
           275 MiB allocation reported by mallinfo(arena+hblkhd)
        168069 MiB available memory on the node where the printing process lives
------------------
     ethr =  8.95E-07,  avg # of iterations = 14.6

     negative rho (up, down):  1.265E-02 0.000E+00

     add environment contribution to local potential

     total cpu time spent up to now is      602.9 secs

     total energy              =    -722.06000352 Ry
     estimated scf accuracy    <       0.00166815 Ry

     total charge of GC-SCF    =       4.44125851 e
     the Fermi energy          =      -4.71645482 eV
                        (error :       0.31245482 eV)
     electrostatic embedding   =      -2.81324517 Ry
     cavitation energy         =       0.04103507 Ry
     electrolyte free energy   =      -0.05097884 Ry
     correction to one-el term =    -152.28694510 Ry

     iteration # 15     ecut=    80.00 Ry     beta= 0.20
     Davidson diagonalization with overlap

---- Real-time Memory Report at c_bands before calling an iterative solver
          1117 MiB given to the printing process from OS
           275 MiB allocation reported by mallinfo(arena+hblkhd)
        168065 MiB available memory on the node where the printing process lives
------------------
     ethr =  8.95E-07,  avg # of iterations = 18.6

     negative rho (up, down):  9.294E-03 0.000E+00

     add environment contribution to local potential

     total cpu time spent up to now is      638.6 secs

     total energy              =    -722.07292083 Ry
     estimated scf accuracy    <       0.00027350 Ry

     total charge of GC-SCF    =       4.54518931 e
     the Fermi energy          =      -4.35318256 eV
                        (error :       0.05081744 eV)
     electrostatic embedding   =      -2.25065799 Ry
     cavitation energy         =       0.04103507 Ry
     electrolyte free energy   =      -0.04039005 Ry
     correction to one-el term =    -136.46992949 Ry

     iteration # 16     ecut=    80.00 Ry     beta= 0.20
     Davidson diagonalization with overlap

---- Real-time Memory Report at c_bands before calling an iterative solver
          1117 MiB given to the printing process from OS
           275 MiB allocation reported by mallinfo(arena+hblkhd)
        168067 MiB available memory on the node where the printing process lives
------------------
     ethr =  1.96E-07,  avg # of iterations = 15.6

     negative rho (up, down):  1.224E-02 0.000E+00

     add environment contribution to local potential

     total cpu time spent up to now is      674.6 secs

     total energy              =    -722.07420440 Ry
     estimated scf accuracy    <       0.00009019 Ry

     total charge of GC-SCF    =       4.56584841 e
     the Fermi energy          =      -4.34247511 eV
                        (error :       0.06152489 eV)
     electrostatic embedding   =      -2.38394696 Ry
     cavitation energy         =       0.04103507 Ry
     electrolyte free energy   =      -0.04246750 Ry
     correction to one-el term =    -140.66310831 Ry

     iteration # 17     ecut=    80.00 Ry     beta= 0.20
     Davidson diagonalization with overlap

---- Real-time Memory Report at c_bands before calling an iterative solver
          1117 MiB given to the printing process from OS
           275 MiB allocation reported by mallinfo(arena+hblkhd)
        168067 MiB available memory on the node where the printing process lives
------------------
     ethr =  6.47E-08,  avg # of iterations = 14.4

     negative rho (up, down):  5.374E-03 0.000E+00

     add environment contribution to local potential

     total cpu time spent up to now is      709.8 secs

     total energy              =    -722.07417511 Ry
     estimated scf accuracy    <       0.00012034 Ry

     total charge of GC-SCF    =       4.57766813 e
     the Fermi energy          =      -4.34731063 eV
                        (error :       0.05668937 eV)
     electrostatic embedding   =      -2.40114666 Ry
     cavitation energy         =       0.04103507 Ry
     electrolyte free energy   =      -0.04280739 Ry
     correction to one-el term =    -141.00292923 Ry

     iteration # 18     ecut=    80.00 Ry     beta= 0.20
     Davidson diagonalization with overlap

---- Real-time Memory Report at c_bands before calling an iterative solver
          1117 MiB given to the printing process from OS
           275 MiB allocation reported by mallinfo(arena+hblkhd)
        168059 MiB available memory on the node where the printing process lives
------------------
     ethr =  6.47E-08,  avg # of iterations = 16.1

     negative rho (up, down):  4.205E-03 0.000E+00

     add environment contribution to local potential

     total cpu time spent up to now is      744.6 secs

     total energy              =    -722.07526074 Ry
     estimated scf accuracy    <       0.00005028 Ry

     total charge of GC-SCF    =       4.52144710 e
     the Fermi energy          =      -4.36092614 eV
                        (error :       0.04307386 eV)
     electrostatic embedding   =      -2.40449435 Ry
     cavitation energy         =       0.04103507 Ry
     electrolyte free energy   =      -0.04299905 Ry
     correction to one-el term =    -141.07242081 Ry

     iteration # 19     ecut=    80.00 Ry     beta= 0.20
     Davidson diagonalization with overlap

---- Real-time Memory Report at c_bands before calling an iterative solver
          1117 MiB given to the printing process from OS
           275 MiB allocation reported by mallinfo(arena+hblkhd)
        168054 MiB available memory on the node where the printing process lives
------------------
     ethr =  3.60E-08,  avg # of iterations = 19.6

     negative rho (up, down):  3.988E-03 0.000E+00

     add environment contribution to local potential

     total cpu time spent up to now is      783.1 secs

     total energy              =    -722.07367199 Ry
     estimated scf accuracy    <       0.00002769 Ry

     total charge of GC-SCF    =       4.53709203 e
     the Fermi energy          =      -4.36659216 eV
                        (error :       0.03740784 eV)
     electrostatic embedding   =      -2.33927553 Ry
     cavitation energy         =       0.04103507 Ry
     electrolyte free energy   =      -0.04195757 Ry
     correction to one-el term =    -139.32649851 Ry

     iteration # 20     ecut=    80.00 Ry     beta= 0.20
     Davidson diagonalization with overlap

---- Real-time Memory Report at c_bands before calling an iterative solver
          1117 MiB given to the printing process from OS
           275 MiB allocation reported by mallinfo(arena+hblkhd)
        168036 MiB available memory on the node where the printing process lives
------------------
     ethr =  1.99E-08,  avg # of iterations =  9.0

     negative rho (up, down):  2.358E-03 0.000E+00

     add environment contribution to local potential

     total cpu time spent up to now is      814.1 secs

     total energy              =    -722.07407535 Ry
     estimated scf accuracy    <       0.00002810 Ry

     total charge of GC-SCF    =       4.62110294 e
     the Fermi energy          =      -4.38541433 eV
                        (error :       0.01858567 eV)
     electrostatic embedding   =      -2.35667247 Ry
     cavitation energy         =       0.04103507 Ry
     electrolyte free energy   =      -0.04227457 Ry
     correction to one-el term =    -139.89638668 Ry

     iteration # 21     ecut=    80.00 Ry     beta= 0.20
     Davidson diagonalization with overlap

---- Real-time Memory Report at c_bands before calling an iterative solver
          1117 MiB given to the printing process from OS
           275 MiB allocation reported by mallinfo(arena+hblkhd)
        168058 MiB available memory on the node where the printing process lives
------------------
     ethr =  1.99E-08,  avg # of iterations = 21.6

     negative rho (up, down):  7.809E-04 0.000E+00

     add environment contribution to local potential

     total cpu time spent up to now is      852.1 secs

     total energy              =    -722.07355876 Ry
     estimated scf accuracy    <       0.00001565 Ry

     total charge of GC-SCF    =       4.63086164 e
     the Fermi energy          =      -4.40601495 eV
                        (error :       0.00201495 eV)
     electrostatic embedding   =      -2.45226709 Ry
     cavitation energy         =       0.04103507 Ry
     electrolyte free energy   =      -0.04390509 Ry
     correction to one-el term =    -142.64421175 Ry

     iteration # 22     ecut=    80.00 Ry     beta= 0.20
     Davidson diagonalization with overlap

---- Real-time Memory Report at c_bands before calling an iterative solver
          1117 MiB given to the printing process from OS
           275 MiB allocation reported by mallinfo(arena+hblkhd)
        168057 MiB available memory on the node where the printing process lives
------------------
     ethr =  1.12E-08,  avg # of iterations = 23.7

     negative rho (up, down):  7.462E-04 0.000E+00

     add environment contribution to local potential

     total cpu time spent up to now is      893.4 secs

     total energy              =    -722.07364504 Ry
     estimated scf accuracy    <       0.00000509 Ry

     total charge of GC-SCF    =       4.60758441 e
     the Fermi energy          =      -4.40128538 eV
                        (error :       0.00271462 eV)
     electrostatic embedding   =      -2.47028597 Ry
     cavitation energy         =       0.04103507 Ry
     electrolyte free energy   =      -0.04411919 Ry
     correction to one-el term =    -143.17460857 Ry

     iteration # 23     ecut=    80.00 Ry     beta= 0.20
     Davidson diagonalization with overlap

---- Real-time Memory Report at c_bands before calling an iterative solver
          1117 MiB given to the printing process from OS
           275 MiB allocation reported by mallinfo(arena+hblkhd)
        168056 MiB available memory on the node where the printing process lives
------------------
     ethr =  3.65E-09,  avg # of iterations = 12.8

     negative rho (up, down):  6.113E-04 0.000E+00

     add environment contribution to local potential

     total cpu time spent up to now is      927.9 secs

     total energy              =    -722.07366779 Ry
     estimated scf accuracy    <       0.00000301 Ry

     total charge of GC-SCF    =       4.60774116 e
     the Fermi energy          =      -4.39601256 eV
                        (error :       0.00798744 eV)
     electrostatic embedding   =      -2.44300319 Ry
     cavitation energy         =       0.04103507 Ry
     electrolyte free energy   =      -0.04365571 Ry
     correction to one-el term =    -142.38777884 Ry

     iteration # 24     ecut=    80.00 Ry     beta= 0.20
     Davidson diagonalization with overlap

---- Real-time Memory Report at c_bands before calling an iterative solver
          1117 MiB given to the printing process from OS
           275 MiB allocation reported by mallinfo(arena+hblkhd)
        168054 MiB available memory on the node where the printing process lives
------------------
     ethr =  2.16E-09,  avg # of iterations = 20.9

     negative rho (up, down):  5.736E-04 0.000E+00

     add environment contribution to local potential

     total cpu time spent up to now is      967.1 secs

     total energy              =    -722.07370177 Ry
     estimated scf accuracy    <       0.00000240 Ry

     total charge of GC-SCF    =       4.60496557 e
     the Fermi energy          =      -4.39566869 eV
                        (error :       0.00833131 eV)
     electrostatic embedding   =      -2.44255635 Ry
     cavitation energy         =       0.04103507 Ry
     electrolyte free energy   =      -0.04365562 Ry
     correction to one-el term =    -142.36706642 Ry

     iteration # 25     ecut=    80.00 Ry     beta= 0.20
     Davidson diagonalization with overlap

---- Real-time Memory Report at c_bands before calling an iterative solver
          1117 MiB given to the printing process from OS
           275 MiB allocation reported by mallinfo(arena+hblkhd)
        168053 MiB available memory on the node where the printing process lives
------------------
     ethr =  1.72E-09,  avg # of iterations = 13.0

     negative rho (up, down):  6.193E-04 0.000E+00

     add environment contribution to local potential

     total cpu time spent up to now is      999.1 secs

     total energy              =    -722.07377671 Ry
     estimated scf accuracy    <       0.00000177 Ry

     total charge of GC-SCF    =       4.59910316 e
     the Fermi energy          =      -4.39278310 eV
                        (error :       0.01121690 eV)
     electrostatic embedding   =      -2.43900590 Ry
     cavitation energy         =       0.04103507 Ry
     electrolyte free energy   =      -0.04359780 Ry
     correction to one-el term =    -142.25995046 Ry

     iteration # 26     ecut=    80.00 Ry     beta= 0.20
     Davidson diagonalization with overlap

---- Real-time Memory Report at c_bands before calling an iterative solver
          1117 MiB given to the printing process from OS
           275 MiB allocation reported by mallinfo(arena+hblkhd)
        168054 MiB available memory on the node where the printing process lives
------------------
     ethr =  1.27E-09,  avg # of iterations = 20.2

     negative rho (up, down):  7.070E-04 0.000E+00

     add environment contribution to local potential

     total cpu time spent up to now is     1037.1 secs

     total energy              =    -722.07374618 Ry
     estimated scf accuracy    <       0.00000105 Ry

     total charge of GC-SCF    =       4.61068193 e
     the Fermi energy          =      -4.38892916 eV
                        (error :       0.01507084 eV)
     electrostatic embedding   =      -2.43078627 Ry
     cavitation energy         =       0.04103507 Ry
     electrolyte free energy   =      -0.04347222 Ry
     correction to one-el term =    -142.00810145 Ry

     iteration # 27     ecut=    80.00 Ry     beta= 0.20
     Davidson diagonalization with overlap

---- Real-time Memory Report at c_bands before calling an iterative solver
          1117 MiB given to the printing process from OS
           275 MiB allocation reported by mallinfo(arena+hblkhd)
        168053 MiB available memory on the node where the printing process lives
------------------
     ethr =  7.53E-10,  avg # of iterations = 21.1

     negative rho (up, down):  7.509E-04 0.000E+00

     add environment contribution to local potential

     total cpu time spent up to now is     1074.2 secs

     total energy              =    -722.07370062 Ry
     estimated scf accuracy    <       0.00000059 Ry

     total charge of GC-SCF    =       4.61736580 e
     the Fermi energy          =      -4.39523864 eV
                        (error :       0.00876136 eV)
     electrostatic embedding   =      -2.44359914 Ry
     cavitation energy         =       0.04103507 Ry
     electrolyte free energy   =      -0.04370194 Ry
     correction to one-el term =    -142.38671355 Ry

     iteration # 28     ecut=    80.00 Ry     beta= 0.20
     Davidson diagonalization with overlap

---- Real-time Memory Report at c_bands before calling an iterative solver
          1117 MiB given to the printing process from OS
           275 MiB allocation reported by mallinfo(arena+hblkhd)
        168045 MiB available memory on the node where the printing process lives
------------------
     ethr =  4.25E-10,  avg # of iterations = 14.4

     negative rho (up, down):  7.739E-04 0.000E+00

     add environment contribution to local potential

     total cpu time spent up to now is     1110.6 secs

     total energy              =    -722.07367139 Ry
     estimated scf accuracy    <       0.00000041 Ry

     total charge of GC-SCF    =       4.63190234 e
     the Fermi energy          =      -4.39944973 eV
                        (error :       0.00455027 eV)
     electrostatic embedding   =      -2.45102379 Ry
     cavitation energy         =       0.04103507 Ry
     electrolyte free energy   =      -0.04383533 Ry
     correction to one-el term =    -142.60560327 Ry

     iteration # 29     ecut=    80.00 Ry     beta= 0.20
     Davidson diagonalization with overlap

---- Real-time Memory Report at c_bands before calling an iterative solver
          1117 MiB given to the printing process from OS
           275 MiB allocation reported by mallinfo(arena+hblkhd)
        168045 MiB available memory on the node where the printing process lives
------------------
     ethr =  2.92E-10,  avg # of iterations = 23.8

     negative rho (up, down):  7.936E-04 0.000E+00

     add environment contribution to local potential

     total cpu time spent up to now is     1153.4 secs

     total energy              =    -722.07358915 Ry
     estimated scf accuracy    <       0.00000012 Ry

     total charge of GC-SCF    =       4.63247049 e
     the Fermi energy          =      -4.40649818 eV
                        (error :       0.00249818 eV)
     electrostatic embedding   =      -2.46659854 Ry
     cavitation energy         =       0.04103507 Ry
     electrolyte free energy   =      -0.04411773 Ry
     correction to one-el term =    -143.03822470 Ry

     iteration # 30     ecut=    80.00 Ry     beta= 0.20
     Davidson diagonalization with overlap

---- Real-time Memory Report at c_bands before calling an iterative solver
          1117 MiB given to the printing process from OS
           275 MiB allocation reported by mallinfo(arena+hblkhd)
        168049 MiB available memory on the node where the printing process lives
------------------
     ethr =  8.63E-11,  avg # of iterations = 19.6

     negative rho (up, down):  7.630E-04 0.000E+00

     add environment contribution to local potential

     total cpu time spent up to now is     1191.2 secs

     total energy              =    -722.07358514 Ry
     estimated scf accuracy    <       0.00000010 Ry

     total charge of GC-SCF    =       4.63138984 e
     the Fermi energy          =      -4.40685286 eV
                        (error :       0.00285286 eV)
     electrostatic embedding   =      -2.46706139 Ry
     cavitation energy         =       0.04103507 Ry
     electrolyte free energy   =      -0.04412774 Ry
     correction to one-el term =    -143.04806259 Ry

     iteration # 31     ecut=    80.00 Ry     beta= 0.20
     Davidson diagonalization with overlap

---- Real-time Memory Report at c_bands before calling an iterative solver
          1117 MiB given to the printing process from OS
           275 MiB allocation reported by mallinfo(arena+hblkhd)
        168040 MiB available memory on the node where the printing process lives
------------------
     ethr =  7.14E-11,  avg # of iterations = 12.2

     negative rho (up, down):  7.396E-04 0.000E+00

     add environment contribution to local potential

     total cpu time spent up to now is     1223.9 secs

     total energy              =    -722.07358948 Ry
     estimated scf accuracy    <       0.00000008 Ry

     total charge of GC-SCF    =       4.63082371 e
     the Fermi energy          =      -4.40658687 eV
                        (error :       0.00258687 eV)
     electrostatic embedding   =      -2.46585073 Ry
     cavitation energy         =       0.04103507 Ry
     electrolyte free energy   =      -0.04410649 Ry
     correction to one-el term =    -143.01227726 Ry

     iteration # 32     ecut=    80.00 Ry     beta= 0.20
     Davidson diagonalization with overlap

---- Real-time Memory Report at c_bands before calling an iterative solver
          1117 MiB given to the printing process from OS
           275 MiB allocation reported by mallinfo(arena+hblkhd)
        168028 MiB available memory on the node where the printing process lives
------------------
     ethr =  5.51E-11,  avg # of iterations = 12.9

     negative rho (up, down):  6.614E-04 0.000E+00

     add environment contribution to local potential

     total cpu time spent up to now is     1255.9 secs

     total energy              =    -722.07359165 Ry
     estimated scf accuracy    <       0.00000007 Ry

     total charge of GC-SCF    =       4.62825644 e
     the Fermi energy          =      -4.40642061 eV
                        (error :       0.00242061 eV)
     electrostatic embedding   =      -2.46528268 Ry
     cavitation energy         =       0.04103507 Ry
     electrolyte free energy   =      -0.04409582 Ry
     correction to one-el term =    -142.99650804 Ry

     iteration # 33     ecut=    80.00 Ry     beta= 0.20
     Davidson diagonalization with overlap

---- Real-time Memory Report at c_bands before calling an iterative solver
          1117 MiB given to the printing process from OS
           275 MiB allocation reported by mallinfo(arena+hblkhd)
        168047 MiB available memory on the node where the printing process lives
------------------
     ethr =  4.77E-11,  avg # of iterations = 28.8

     negative rho (up, down):  6.476E-04 0.000E+00

     add environment contribution to local potential

     total cpu time spent up to now is     1299.1 secs

     total energy              =    -722.07360404 Ry
     estimated scf accuracy    <       0.00000003 Ry

     total charge of GC-SCF    =       4.62602815 e
     the Fermi energy          =      -4.40534265 eV
                        (error :       0.00134265 eV)
     electrostatic embedding   =      -2.46293252 Ry
     cavitation energy         =       0.04103507 Ry
     electrolyte free energy   =      -0.04404766 Ry
     correction to one-el term =    -142.93269134 Ry

     iteration # 34     ecut=    80.00 Ry     beta= 0.20
     Davidson diagonalization with overlap

---- Real-time Memory Report at c_bands before calling an iterative solver
          1117 MiB given to the printing process from OS
           275 MiB allocation reported by mallinfo(arena+hblkhd)
        168043 MiB available memory on the node where the printing process lives
------------------
     ethr =  1.85E-11,  avg # of iterations = 27.9

     negative rho (up, down):  6.621E-04 0.000E+00

     total cpu time spent up to now is     1325.5 secs

     End of self-consistent calculation

          k = 0.0000 0.0000 0.0000 (341261 PWs)   bands (ev):

   -52.3463 -52.3463 -52.3463 -52.3463 -52.3456 -52.3456 -52.3456 -52.3456
   -51.4698 -51.4697 -51.4695 -51.4695 -51.4695 -51.4694 -51.4694 -51.4693
   -51.1044 -51.1043 -51.1043 -51.1042 -51.1040 -51.1040 -51.1040 -51.1040
   -50.9227 -50.9164 -50.9164 -50.9164 -50.9120 -50.9120 -50.9120 -50.9081
   -50.8925 -50.8925 -50.8925 -50.8912 -50.8876 -50.8876 -50.8876 -50.8869
   -50.7736 -50.7736 -50.7736 -50.7733 -50.7733 -50.7733 -50.7732 -50.7730
    -7.7756  -7.2797  -6.4078  -6.1997  -6.1997  -6.1997  -6.1769  -6.1769
    -6.1769  -5.7164  -5.7164  -5.7164  -5.6822  -5.6822  -5.6822  -5.3427
    -4.8654  -4.8654  -4.8654  -4.8459  -4.8459  -4.8459  -4.0144  -3.9232
    -3.9232  -3.9232  -3.9123  -3.9123  -3.9123  -3.3539  -3.3539  -3.3539
    -3.3206  -3.3206  -3.3206  -2.6989  -2.6989  -2.6988  -2.5272  -2.2402
    -2.2402  -2.2402  -1.8895  -1.8895  -1.7736  -1.7736  -1.7689  -1.7689
    -1.7689  -1.4579  -1.3424  -1.3424  -1.1662  -1.1662  -1.1295  -1.1295
    -1.1295  -0.7425  -0.7424  -0.7424

     occupation numbers 
     1.0000   1.0000   1.0000   1.0000   1.0000   1.0000   1.0000   1.0000
     1.0000   1.0000   1.0000   1.0000   1.0000   1.0000   1.0000   1.0000
     1.0000   1.0000   1.0000   1.0000   1.0000   1.0000   1.0000   1.0000
     1.0000   1.0000   1.0000   1.0000   1.0000   1.0000   1.0000   1.0000
     1.0000   1.0000   1.0000   1.0000   1.0000   1.0000   1.0000   1.0000
     1.0000   1.0000   1.0000   1.0000   1.0000   1.0000   1.0000   1.0000
     1.0000   1.0000   1.0000   1.0000   1.0000   1.0000   1.0000   1.0000
     1.0000   1.0000   1.0000   1.0000   1.0000   1.0000   1.0000   1.0000
     1.0002   1.0002   1.0002   1.0005   1.0005   1.0005   0.0000   0.0000
     0.0000   0.0000   0.0000   0.0000   0.0000   0.0000   0.0000   0.0000
     0.0000   0.0000   0.0000   0.0000   0.0000   0.0000   0.0000   0.0000
     0.0000   0.0000   0.0000   0.0000   0.0000   0.0000   0.0000   0.0000
     0.0000   0.0000   0.0000   0.0000   0.0000   0.0000   0.0000   0.0000
     0.0000   0.0000   0.0000   0.0000

          k = 0.0000 0.1650 0.0000 (341287 PWs)   bands (ev):

   -52.3463 -52.3463 -52.3463 -52.3463 -52.3456 -52.3456 -52.3456 -52.3456
   -51.4698 -51.4697 -51.4695 -51.4695 -51.4695 -51.4694 -51.4694 -51.4693
   -51.1044 -51.1043 -51.1043 -51.1042 -51.1040 -51.1040 -51.1040 -51.1040
   -50.9225 -50.9170 -50.9164 -50.9164 -50.9120 -50.9120 -50.9116 -50.9082
   -50.8925 -50.8925 -50.8925 -50.8913 -50.8876 -50.8876 -50.8876 -50.8869
   -50.7736 -50.7736 -50.7736 -50.7733 -50.7733 -50.7733 -50.7732 -50.7730
    -7.7433  -7.2475  -6.6091  -6.3831  -6.3831  -6.3756  -6.1189  -5.9434
    -5.9434  -5.8785  -5.8785  -5.6998  -5.4515  -5.4515  -5.3220  -5.3101
    -5.1441  -5.0241  -5.0241  -4.6358  -4.6358  -4.5013  -4.0691  -4.0691
    -4.0376  -3.9879  -3.9424  -3.9423  -3.8697  -3.4940  -3.4940  -3.2782
    -3.2742  -3.2741  -3.1828  -2.7894  -2.7893  -2.7286  -2.5226  -2.4826
    -2.3845  -2.3136  -2.3136  -2.1985  -1.9258  -1.8063  -1.7248  -1.7248
    -1.6681  -1.4608  -1.3371  -1.1965  -1.1224  -0.9120  -0.9120  -0.8218
    -0.8134  -0.8074  -0.8074  -0.7958

     occupation numbers 
     1.0000   1.0000   1.0000   1.0000   1.0000   1.0000   1.0000   1.0000
     1.0000   1.0000   1.0000   1.0000   1.0000   1.0000   1.0000   1.0000
     1.0000   1.0000   1.0000   1.0000   1.0000   1.0000   1.0000   1.0000
     1.0000   1.0000   1.0000   1.0000   1.0000   1.0000   1.0000   1.0000
     1.0000   1.0000   1.0000   1.0000   1.0000   1.0000   1.0000   1.0000
     1.0000   1.0000   1.0000   1.0000   1.0000   1.0000   1.0000   1.0000
     1.0000   1.0000   1.0000   1.0000   1.0000   1.0000   1.0000   1.0000
     1.0000   1.0000   1.0000   1.0000   1.0000   1.0000   1.0000   1.0000
     1.0000   1.0000   1.0000   1.0684   1.0684   0.9032   0.0000   0.0000
     0.0000   0.0000   0.0000   0.0000   0.0000   0.0000   0.0000   0.0000
     0.0000   0.0000   0.0000   0.0000   0.0000   0.0000   0.0000   0.0000
     0.0000   0.0000   0.0000   0.0000   0.0000   0.0000   0.0000   0.0000
     0.0000   0.0000   0.0000   0.0000   0.0000   0.0000   0.0000   0.0000
     0.0000   0.0000   0.0000   0.0000

          k = 0.0000 0.3299 0.0000 (341325 PWs)   bands (ev):

   -52.3463 -52.3463 -52.3463 -52.3463 -52.3456 -52.3456 -52.3456 -52.3456
   -51.4698 -51.4697 -51.4695 -51.4695 -51.4695 -51.4694 -51.4694 -51.4693
   -51.1044 -51.1043 -51.1043 -51.1042 -51.1040 -51.1040 -51.1040 -51.1040
   -50.9219 -50.9182 -50.9165 -50.9165 -50.9119 -50.9119 -50.9107 -50.9085
   -50.8926 -50.8926 -50.8923 -50.8914 -50.8876 -50.8876 -50.8875 -50.8870
   -50.7736 -50.7736 -50.7736 -50.7734 -50.7733 -50.7733 -50.7732 -50.7730
    -7.6462  -7.1506  -6.9658  -6.5136  -6.5136  -6.4724  -6.2791  -6.0233
    -6.0233  -5.6115  -5.6108  -5.6108  -5.2279  -5.2279  -5.2129  -5.1566
    -5.0539  -5.0539  -4.6683  -4.5637  -4.4346  -4.4346  -4.3914  -4.3914
    -3.9617  -3.9617  -3.9128  -3.8664  -3.8664  -3.8230  -3.7420  -3.1870
    -3.1513  -3.1373  -3.1216  -3.1216  -3.0428  -3.0428  -2.8498  -2.7177
    -2.5077  -2.3974  -2.3701  -2.3700  -2.2658  -2.0734  -1.8056  -1.8056
    -1.6997  -1.5668  -1.2069  -1.2040  -1.0400  -1.0399  -0.8694  -0.8694
    -0.8224  -0.6691  -0.6413  -0.6002

     occupation numbers 
     1.0000   1.0000   1.0000   1.0000   1.0000   1.0000   1.0000   1.0000
     1.0000   1.0000   1.0000   1.0000   1.0000   1.0000   1.0000   1.0000
     1.0000   1.0000   1.0000   1.0000   1.0000   1.0000   1.0000   1.0000
     1.0000   1.0000   1.0000   1.0000   1.0000   1.0000   1.0000   1.0000
     1.0000   1.0000   1.0000   1.0000   1.0000   1.0000   1.0000   1.0000
     1.0000   1.0000   1.0000   1.0000   1.0000   1.0000   1.0000   1.0000
     1.0000   1.0000   1.0000   1.0000   1.0000   1.0000   1.0000   1.0000
     1.0000   1.0000   1.0000   1.0000   1.0000   1.0000   1.0000   1.0000
     1.0000   1.0000   1.0465   1.0662   0.5633   0.5632   0.3394   0.3394
     0.0000   0.0000   0.0000   0.0000   0.0000   0.0000   0.0000   0.0000
     0.0000   0.0000   0.0000   0.0000   0.0000   0.0000   0.0000   0.0000
     0.0000   0.0000   0.0000   0.0000   0.0000   0.0000   0.0000   0.0000
     0.0000   0.0000   0.0000   0.0000   0.0000   0.0000   0.0000   0.0000
     0.0000   0.0000   0.0000   0.0000

          k = 0.0000 0.4949 0.0000 (341402 PWs)   bands (ev):

   -52.3463 -52.3463 -52.3463 -52.3463 -52.3456 -52.3456 -52.3456 -52.3456
   -51.4697 -51.4697 -51.4695 -51.4695 -51.4695 -51.4694 -51.4694 -51.4693
   -51.1044 -51.1043 -51.1043 -51.1042 -51.1040 -51.1040 -51.1040 -51.1040
   -50.9209 -50.9196 -50.9166 -50.9165 -50.9118 -50.9118 -50.9098 -50.9091
   -50.8926 -50.8926 -50.8920 -50.8917 -50.8876 -50.8876 -50.8873 -50.8872
   -50.7736 -50.7736 -50.7735 -50.7734 -50.7733 -50.7733 -50.7731 -50.7731
    -7.4844  -7.2576  -6.9892  -6.7630  -6.5791  -6.5791  -6.1186  -6.0872
    -6.0872  -5.8951  -5.2477  -5.2477  -5.2363  -5.2363  -5.0535  -4.8444
    -4.8416  -4.8416  -4.7295  -4.7295  -4.5334  -4.3549  -4.3548  -4.2240
    -4.2240  -4.0793  -3.8961  -3.8230  -3.8230  -3.8013  -3.6321  -3.5293
    -3.4022  -3.4022  -3.3500  -3.2318  -2.9647  -2.9507  -2.9507  -2.9399
    -2.6445  -2.5397  -2.2925  -2.2925  -2.2351  -2.1112  -2.0657  -2.0656
    -1.8656  -1.5759  -1.4170  -1.2028  -0.9950  -0.9360  -0.8383  -0.7804
    -0.7070  -0.7070  -0.6101  -0.5801

     occupation numbers 
     1.0000   1.0000   1.0000   1.0000   1.0000   1.0000   1.0000   1.0000
     1.0000   1.0000   1.0000   1.0000   1.0000   1.0000   1.0000   1.0000
     1.0000   1.0000   1.0000   1.0000   1.0000   1.0000   1.0000   1.0000
     1.0000   1.0000   1.0000   1.0000   1.0000   1.0000   1.0000   1.0000
     1.0000   1.0000   1.0000   1.0000   1.0000   1.0000   1.0000   1.0000
     1.0000   1.0000   1.0000   1.0000   1.0000   1.0000   1.0000   1.0000
     1.0000   1.0000   1.0000   1.0000   1.0000   1.0000   1.0000   1.0000
     1.0000   1.0000   1.0000   1.0000   1.0000   1.0000   1.0000   1.0005
     1.0005   1.0005   1.0147   1.0147   1.0108   0.1926   0.1926   0.0085
     0.0085   0.0000   0.0000   0.0000   0.0000   0.0000   0.0000   0.0000
     0.0000   0.0000   0.0000   0.0000   0.0000   0.0000   0.0000   0.0000
     0.0000   0.0000   0.0000   0.0000   0.0000   0.0000   0.0000   0.0000
     0.0000   0.0000   0.0000   0.0000   0.0000   0.0000   0.0000   0.0000
     0.0000   0.0000   0.0000   0.0000

          k = 0.1429 0.2474 0.0000 (341214 PWs)   bands (ev):

   -52.3463 -52.3463 -52.3463 -52.3463 -52.3456 -52.3456 -52.3456 -52.3456
   -51.4698 -51.4697 -51.4695 -51.4695 -51.4695 -51.4694 -51.4694 -51.4693
   -51.1044 -51.1043 -51.1043 -51.1042 -51.1040 -51.1040 -51.1040 -51.1040
   -50.9221 -50.9174 -50.9174 -50.9159 -50.9124 -50.9112 -50.9112 -50.9084
   -50.8926 -50.8924 -50.8924 -50.8914 -50.8876 -50.8876 -50.8876 -50.8870
   -50.7736 -50.7736 -50.7736 -50.7734 -50.7733 -50.7732 -50.7732 -50.7730
    -7.6786  -7.1829  -6.7715  -6.7715  -6.3113  -6.2792  -6.2792  -6.1066
    -6.0834  -5.6218  -5.5891  -5.4288  -5.4288  -5.4134  -5.4134  -5.2452
    -4.9092  -4.9092  -4.7668  -4.7595  -4.4557  -4.4536  -4.4536  -3.9923
    -3.9923  -3.9527  -3.9527  -3.9368  -3.9089  -3.8387  -3.4140  -3.4140
    -3.2848  -3.1151  -3.1151  -3.0705  -2.8864  -2.8702  -2.7108  -2.7108
    -2.5562  -2.3563  -2.3135  -2.2532  -2.2500  -2.2500  -1.8901  -1.5869
    -1.5869  -1.5344  -1.2173  -1.0583  -0.9679  -0.9138  -0.8966  -0.8966
    -0.8789  -0.7628  -0.7628  -0.6414

     occupation numbers 
     1.0000   1.0000   1.0000   1.0000   1.0000   1.0000   1.0000   1.0000
     1.0000   1.0000   1.0000   1.0000   1.0000   1.0000   1.0000   1.0000
     1.0000   1.0000   1.0000   1.0000   1.0000   1.0000   1.0000   1.0000
     1.0000   1.0000   1.0000   1.0000   1.0000   1.0000   1.0000   1.0000
     1.0000   1.0000   1.0000   1.0000   1.0000   1.0000   1.0000   1.0000
     1.0000   1.0000   1.0000   1.0000   1.0000   1.0000   1.0000   1.0000
     1.0000   1.0000   1.0000   1.0000   1.0000   1.0000   1.0000   1.0000
     1.0000   1.0000   1.0000   1.0000   1.0000   1.0000   1.0000   1.0000
     1.0000   1.0000   1.0058   1.0071   0.6801   0.6687   0.6686   0.0000
     0.0000   0.0000   0.0000   0.0000   0.0000   0.0000   0.0000   0.0000
     0.0000   0.0000   0.0000   0.0000   0.0000   0.0000   0.0000   0.0000
     0.0000   0.0000   0.0000   0.0000   0.0000   0.0000   0.0000   0.0000
     0.0000   0.0000   0.0000   0.0000   0.0000   0.0000   0.0000   0.0000
     0.0000   0.0000   0.0000   0.0000

          k = 0.1429 0.4124 0.0000 (341352 PWs)   bands (ev):

   -52.3463 -52.3463 -52.3463 -52.3463 -52.3456 -52.3456 -52.3456 -52.3456
   -51.4697 -51.4697 -51.4695 -51.4695 -51.4695 -51.4694 -51.4694 -51.4693
   -51.1044 -51.1043 -51.1043 -51.1042 -51.1040 -51.1040 -51.1040 -51.1040
   -50.9212 -50.9188 -50.9177 -50.9155 -50.9126 -50.9110 -50.9103 -50.9089
   -50.8927 -50.8924 -50.8922 -50.8916 -50.8877 -50.8875 -50.8874 -50.8871
   -50.7737 -50.7736 -50.7735 -50.7734 -50.7733 -50.7732 -50.7732 -50.7731
    -7.5491  -7.0956  -7.0538  -6.8692  -6.6016  -6.3760  -6.1938  -6.1828
    -5.7587  -5.7364  -5.6908  -5.5163  -5.2675  -5.1166  -5.0755  -4.9032
    -4.8558  -4.8452  -4.6667  -4.5889  -4.4941  -4.4743  -4.3479  -4.3193
    -4.2921  -3.8490  -3.8472  -3.8286  -3.8188  -3.6821  -3.6678  -3.5372
    -3.4181  -3.2579  -3.2513  -3.1533  -3.1343  -3.0944  -3.0309  -2.7963
    -2.7134  -2.4154  -2.4150  -2.3426  -2.2069  -2.1714  -2.0552  -1.9438
    -1.6895  -1.5896  -1.4947  -1.0772  -0.9228  -0.8246  -0.7808  -0.7405
    -0.6714  -0.6137  -0.5772  -0.5343

     occupation numbers 
     1.0000   1.0000   1.0000   1.0000   1.0000   1.0000   1.0000   1.0000
     1.0000   1.0000   1.0000   1.0000   1.0000   1.0000   1.0000   1.0000
     1.0000   1.0000   1.0000   1.0000   1.0000   1.0000   1.0000   1.0000
     1.0000   1.0000   1.0000   1.0000   1.0000   1.0000   1.0000   1.0000
     1.0000   1.0000   1.0000   1.0000   1.0000   1.0000   1.0000   1.0000
     1.0000   1.0000   1.0000   1.0000   1.0000   1.0000   1.0000   1.0000
     1.0000   1.0000   1.0000   1.0000   1.0000   1.0000   1.0000   1.0000
     1.0000   1.0000   1.0000   1.0000   1.0000   1.0000   1.0000   1.0000
     1.0003   1.0005   1.0475   1.0825   0.8727   0.7783   0.1704   0.0979
     0.0536   0.0000   0.0000   0.0000   0.0000   0.0000   0.0000   0.0000
     0.0000   0.0000   0.0000   0.0000   0.0000   0.0000   0.0000   0.0000
     0.0000   0.0000   0.0000   0.0000   0.0000   0.0000   0.0000   0.0000
     0.0000   0.0000   0.0000   0.0000   0.0000   0.0000   0.0000   0.0000
     0.0000   0.0000   0.0000   0.0000

          k = 0.1429 0.5774 0.0000 (341402 PWs)   bands (ev):

   -52.3463 -52.3463 -52.3463 -52.3463 -52.3456 -52.3456 -52.3456 -52.3456
   -51.4697 -51.4697 -51.4695 -51.4695 -51.4695 -51.4694 -51.4694 -51.4693
   -51.1044 -51.1043 -51.1043 -51.1042 -51.1040 -51.1040 -51.1040 -51.1040
   -50.9201 -50.9201 -50.9178 -50.9154 -50.9128 -50.9109 -50.9095 -50.9095
   -50.8927 -50.8924 -50.8919 -50.8919 -50.8877 -50.8875 -50.8873 -50.8873
   -50.7737 -50.7736 -50.7735 -50.7735 -50.7733 -50.7732 -50.7731 -50.7731
    -7.3548  -7.3548  -6.9019  -6.8600  -6.8600  -6.4084  -6.2268  -5.9906
    -5.9906  -5.7380  -5.5465  -5.3590  -5.3316  -4.9700  -4.9292  -4.9291
    -4.8670  -4.7336  -4.7057  -4.7049  -4.4793  -4.2057  -4.2057  -4.1935
    -4.1786  -4.1437  -4.0189  -3.8257  -3.8257  -3.5847  -3.5847  -3.5680
    -3.5679  -3.5607  -3.5587  -3.2089  -3.0361  -3.0132  -3.0132  -2.8814
    -2.7340  -2.7339  -2.3873  -2.2891  -2.2203  -2.2202  -2.0145  -1.9040
    -1.8402  -1.8401  -1.2034  -1.2033  -0.8619  -0.8619  -0.8016  -0.7545
    -0.7193  -0.7193  -0.5320  -0.4605

     occupation numbers 
     1.0000   1.0000   1.0000   1.0000   1.0000   1.0000   1.0000   1.0000
     1.0000   1.0000   1.0000   1.0000   1.0000   1.0000   1.0000   1.0000
     1.0000   1.0000   1.0000   1.0000   1.0000   1.0000   1.0000   1.0000
     1.0000   1.0000   1.0000   1.0000   1.0000   1.0000   1.0000   1.0000
     1.0000   1.0000   1.0000   1.0000   1.0000   1.0000   1.0000   1.0000
     1.0000   1.0000   1.0000   1.0000   1.0000   1.0000   1.0000   1.0000
     1.0000   1.0000   1.0000   1.0000   1.0000   1.0000   1.0000   1.0000
     1.0000   1.0000   1.0000   1.0000   1.0000   1.0000   1.0000   1.0000
     1.0002   1.0134   1.0244   1.0248   0.8036   0.0048   0.0048   0.0032
     0.0019   0.0005   0.0000   0.0000   0.0000   0.0000   0.0000   0.0000
     0.0000   0.0000   0.0000   0.0000   0.0000   0.0000   0.0000   0.0000
     0.0000   0.0000   0.0000   0.0000   0.0000   0.0000   0.0000   0.0000
     0.0000   0.0000   0.0000   0.0000   0.0000   0.0000   0.0000   0.0000
     0.0000   0.0000   0.0000   0.0000

          k = 0.2857 0.4949 0.0000 (341466 PWs)   bands (ev):

   -52.3463 -52.3463 -52.3463 -52.3463 -52.3456 -52.3456 -52.3456 -52.3456
   -51.4697 -51.4697 -51.4695 -51.4695 -51.4695 -51.4695 -51.4694 -51.4693
   -51.1044 -51.1043 -51.1043 -51.1042 -51.1040 -51.1040 -51.1040 -51.1040
   -50.9203 -50.9191 -50.9191 -50.9146 -50.9134 -50.9101 -50.9101 -50.9094
   -50.8928 -50.8921 -50.8921 -50.8918 -50.8877 -50.8874 -50.8874 -50.8873
   -50.7737 -50.7735 -50.7735 -50.7735 -50.7733 -50.7732 -50.7732 -50.7731
    -7.3873  -7.1606  -7.1606  -6.8923  -6.6663  -6.6663  -6.0225  -5.8270
    -5.8035  -5.7993  -5.7993  -5.3964  -5.3387  -5.2927  -4.9589  -4.9047
    -4.7526  -4.7526  -4.4759  -4.4710  -4.4710  -4.4404  -4.1151  -4.1151
    -4.0784  -3.9985  -3.9985  -3.8872  -3.8417  -3.7418  -3.6801  -3.6801
    -3.4715  -3.4715  -3.4084  -3.3732  -3.2531  -3.2116  -2.9345  -2.9345
    -2.5976  -2.5976  -2.5548  -2.4763  -2.3111  -2.2793  -1.9480  -1.9480
    -1.8589  -1.4852  -1.4852  -1.0543  -0.8518  -0.7780  -0.7091  -0.7091
    -0.6159  -0.5890  -0.5889  -0.5237

     occupation numbers 
     1.0000   1.0000   1.0000   1.0000   1.0000   1.0000   1.0000   1.0000
     1.0000   1.0000   1.0000   1.0000   1.0000   1.0000   1.0000   1.0000
     1.0000   1.0000   1.0000   1.0000   1.0000   1.0000   1.0000   1.0000
     1.0000   1.0000   1.0000   1.0000   1.0000   1.0000   1.0000   1.0000
     1.0000   1.0000   1.0000   1.0000   1.0000   1.0000   1.0000   1.0000
     1.0000   1.0000   1.0000   1.0000   1.0000   1.0000   1.0000   1.0000
     1.0000   1.0000   1.0000   1.0000   1.0000   1.0000   1.0000   1.0000
     1.0000   1.0000   1.0000   1.0000   1.0000   1.0000   1.0000   1.0000
     1.0084   1.0084   0.7865   0.7612   0.7612   0.5959   0.0002   0.0002
     0.0000   0.0000   0.0000   0.0000   0.0000   0.0000   0.0000   0.0000
     0.0000   0.0000   0.0000   0.0000   0.0000   0.0000   0.0000   0.0000
     0.0000   0.0000   0.0000   0.0000   0.0000   0.0000   0.0000   0.0000
     0.0000   0.0000   0.0000   0.0000   0.0000   0.0000   0.0000   0.0000
     0.0000   0.0000   0.0000   0.0000

          k =-0.1429 0.0825 0.0000 (341287 PWs)   bands (ev):

   -52.3463 -52.3463 -52.3463 -52.3463 -52.3456 -52.3456 -52.3456 -52.3456
   -51.4698 -51.4697 -51.4695 -51.4695 -51.4695 -51.4694 -51.4694 -51.4693
   -51.1044 -51.1043 -51.1043 -51.1042 -51.1040 -51.1040 -51.1040 -51.1040
   -50.9225 -50.9170 -50.9164 -50.9164 -50.9120 -50.9120 -50.9116 -50.9082
   -50.8925 -50.8925 -50.8925 -50.8913 -50.8876 -50.8876 -50.8876 -50.8869
   -50.7736 -50.7736 -50.7736 -50.7733 -50.7733 -50.7733 -50.7732 -50.7730
    -7.7433  -7.2475  -6.6091  -6.3831  -6.3831  -6.3756  -6.1189  -5.9434
    -5.9434  -5.8785  -5.8785  -5.6998  -5.4515  -5.4515  -5.3220  -5.3101
    -5.1441  -5.0241  -5.0241  -4.6358  -4.6358  -4.5013  -4.0691  -4.0691
    -4.0376  -3.9879  -3.9424  -3.9423  -3.8697  -3.4940  -3.4940  -3.2782
    -3.2742  -3.2741  -3.1828  -2.7894  -2.7893  -2.7286  -2.5226  -2.4826
    -2.3845  -2.3136  -2.3136  -2.1985  -1.9258  -1.8063  -1.7248  -1.7248
    -1.6680  -1.4608  -1.3371  -1.1965  -1.1224  -0.9120  -0.9120  -0.8218
    -0.8134  -0.8074  -0.8074  -0.7958

     occupation numbers 
     1.0000   1.0000   1.0000   1.0000   1.0000   1.0000   1.0000   1.0000
     1.0000   1.0000   1.0000   1.0000   1.0000   1.0000   1.0000   1.0000
     1.0000   1.0000   1.0000   1.0000   1.0000   1.0000   1.0000   1.0000
     1.0000   1.0000   1.0000   1.0000   1.0000   1.0000   1.0000   1.0000
     1.0000   1.0000   1.0000   1.0000   1.0000   1.0000   1.0000   1.0000
     1.0000   1.0000   1.0000   1.0000   1.0000   1.0000   1.0000   1.0000
     1.0000   1.0000   1.0000   1.0000   1.0000   1.0000   1.0000   1.0000
     1.0000   1.0000   1.0000   1.0000   1.0000   1.0000   1.0000   1.0000
     1.0000   1.0000   1.0000   1.0684   1.0684   0.9032   0.0000   0.0000
     0.0000   0.0000   0.0000   0.0000   0.0000   0.0000   0.0000   0.0000
     0.0000   0.0000   0.0000   0.0000   0.0000   0.0000   0.0000   0.0000
     0.0000   0.0000   0.0000   0.0000   0.0000   0.0000   0.0000   0.0000
     0.0000   0.0000   0.0000   0.0000   0.0000   0.0000   0.0000   0.0000
     0.0000   0.0000   0.0000   0.0000

          k =-0.2857 0.1650 0.0000 (341325 PWs)   bands (ev):

   -52.3463 -52.3463 -52.3463 -52.3463 -52.3456 -52.3456 -52.3456 -52.3456
   -51.4697 -51.4697 -51.4695 -51.4695 -51.4695 -51.4695 -51.4694 -51.4693
   -51.1044 -51.1043 -51.1043 -51.1042 -51.1040 -51.1040 -51.1040 -51.1040
   -50.9219 -50.9182 -50.9165 -50.9165 -50.9119 -50.9119 -50.9107 -50.9085
   -50.8926 -50.8926 -50.8923 -50.8914 -50.8876 -50.8876 -50.8875 -50.8870
   -50.7736 -50.7736 -50.7736 -50.7734 -50.7733 -50.7733 -50.7732 -50.7730
    -7.6462  -7.1506  -6.9658  -6.5136  -6.5136  -6.4724  -6.2791  -6.0233
    -6.0233  -5.6115  -5.6108  -5.6108  -5.2279  -5.2279  -5.2129  -5.1566
    -5.0539  -5.0539  -4.6682  -4.5637  -4.4346  -4.4346  -4.3914  -4.3914
    -3.9617  -3.9617  -3.9128  -3.8664  -3.8664  -3.8230  -3.7420  -3.1870
    -3.1513  -3.1373  -3.1216  -3.1216  -3.0428  -3.0428  -2.8498  -2.7177
    -2.5077  -2.3974  -2.3700  -2.3700  -2.2658  -2.0734  -1.8056  -1.8056
    -1.6997  -1.5668  -1.2069  -1.2040  -1.0400  -1.0399  -0.8694  -0.8694
    -0.8225  -0.6691  -0.6413  -0.6002

     occupation numbers 
     1.0000   1.0000   1.0000   1.0000   1.0000   1.0000   1.0000   1.0000
     1.0000   1.0000   1.0000   1.0000   1.0000   1.0000   1.0000   1.0000
     1.0000   1.0000   1.0000   1.0000   1.0000   1.0000   1.0000   1.0000
     1.0000   1.0000   1.0000   1.0000   1.0000   1.0000   1.0000   1.0000
     1.0000   1.0000   1.0000   1.0000   1.0000   1.0000   1.0000   1.0000
     1.0000   1.0000   1.0000   1.0000   1.0000   1.0000   1.0000   1.0000
     1.0000   1.0000   1.0000   1.0000   1.0000   1.0000   1.0000   1.0000
     1.0000   1.0000   1.0000   1.0000   1.0000   1.0000   1.0000   1.0000
     1.0000   1.0000   1.0465   1.0662   0.5633   0.5632   0.3394   0.3394
     0.0000   0.0000   0.0000   0.0000   0.0000   0.0000   0.0000   0.0000
     0.0000   0.0000   0.0000   0.0000   0.0000   0.0000   0.0000   0.0000
     0.0000   0.0000   0.0000   0.0000   0.0000   0.0000   0.0000   0.0000
     0.0000   0.0000   0.0000   0.0000   0.0000   0.0000   0.0000   0.0000
     0.0000   0.0000   0.0000   0.0000

          k =-0.4286 0.2474 0.0000 (341402 PWs)   bands (ev):

   -52.3463 -52.3463 -52.3463 -52.3463 -52.3456 -52.3456 -52.3456 -52.3456
   -51.4697 -51.4697 -51.4695 -51.4695 -51.4695 -51.4695 -51.4694 -51.4693
   -51.1044 -51.1043 -51.1043 -51.1042 -51.1040 -51.1040 -51.1040 -51.1040
   -50.9209 -50.9196 -50.9165 -50.9165 -50.9118 -50.9118 -50.9098 -50.9091
   -50.8926 -50.8926 -50.8920 -50.8917 -50.8876 -50.8876 -50.8873 -50.8872
   -50.7736 -50.7736 -50.7735 -50.7734 -50.7733 -50.7733 -50.7731 -50.7731
    -7.4844  -7.2576  -6.9892  -6.7630  -6.5791  -6.5791  -6.1186  -6.0872
    -6.0872  -5.8951  -5.2477  -5.2477  -5.2363  -5.2363  -5.0535  -4.8444
    -4.8416  -4.8416  -4.7295  -4.7295  -4.5334  -4.3549  -4.3548  -4.2240
    -4.2240  -4.0793  -3.8961  -3.8230  -3.8230  -3.8013  -3.6321  -3.5293
    -3.4022  -3.4022  -3.3500  -3.2318  -2.9647  -2.9507  -2.9507  -2.9399
    -2.6445  -2.5397  -2.2925  -2.2925  -2.2351  -2.1112  -2.0657  -2.0656
    -1.8656  -1.5759  -1.4170  -1.2028  -0.9950  -0.9360  -0.8383  -0.7804
    -0.7070  -0.7070  -0.6101  -0.5801

     occupation numbers 
     1.0000   1.0000   1.0000   1.0000   1.0000   1.0000   1.0000   1.0000
     1.0000   1.0000   1.0000   1.0000   1.0000   1.0000   1.0000   1.0000
     1.0000   1.0000   1.0000   1.0000   1.0000   1.0000   1.0000   1.0000
     1.0000   1.0000   1.0000   1.0000   1.0000   1.0000   1.0000   1.0000
     1.0000   1.0000   1.0000   1.0000   1.0000   1.0000   1.0000   1.0000
     1.0000   1.0000   1.0000   1.0000   1.0000   1.0000   1.0000   1.0000
[...]
     atom   32 type  1   force =     0.00016587    0.00014427   -3.47571644
     atom   33 type  1   force =     0.00000334   -0.00011085   -8.36359658
     atom   34 type  1   force =     0.00000254    0.00008637   -6.31304644
     atom   35 type  1   force =     0.00022610    0.00000239  -10.34185674
     atom   36 type  1   force =     0.00000392   -0.00010262   -1.03932722
     atom   37 type  1   force =    -0.00019767   -0.00016864    1.04114280
     atom   38 type  1   force =     0.00000277    0.00002819   10.33984047
     atom   39 type  1   force =     0.00010598    0.00001855    6.30420551
     atom   40 type  1   force =    -0.00019344   -0.00014279    8.36548826
     atom   41 type  1   force =     0.00000335   -0.00014657    3.47493761
     atom   42 type  1   force =    -0.00002752    0.00005050   12.41056129
     atom   43 type  1   force =     0.00008172    0.00001957  -12.41160170
     atom   44 type  1   force =     0.00000335   -0.00023774   -3.47529724
     atom   45 type  1   force =     0.00021785   -0.00000903   -8.36332713
     atom   46 type  1   force =    -0.00000392   -0.00007763   -6.31301889
     atom   47 type  1   force =     0.00000335   -0.00013880  -10.34136200
     atom   48 type  1   force =     0.00023517   -0.00003430   -1.03916184
     The core correction contribution to forces
     atom    1 type  1   force =     0.00000000    0.00000000    0.00000000
     atom    2 type  1   force =     0.00000000    0.00000000    0.00000000
     atom    3 type  1   force =     0.00000000    0.00000000    0.00000000
     atom    4 type  1   force =     0.00000000    0.00000000    0.00000000
     atom    5 type  1   force =     0.00000000    0.00000000    0.00000000
     atom    6 type  1   force =     0.00000000    0.00000000    0.00000000
     atom    7 type  1   force =     0.00000000    0.00000000    0.00000000
     atom    8 type  1   force =     0.00000000    0.00000000    0.00000000
     atom    9 type  1   force =     0.00000000    0.00000000    0.00000000
     atom   10 type  1   force =     0.00000000    0.00000000    0.00000000
     atom   11 type  1   force =     0.00000000    0.00000000    0.00000000
     atom   12 type  1   force =     0.00000000    0.00000000    0.00000000
     atom   13 type  1   force =     0.00000000    0.00000000    0.00000000
     atom   14 type  1   force =     0.00000000    0.00000000    0.00000000
     atom   15 type  1   force =     0.00000000    0.00000000    0.00000000
     atom   16 type  1   force =     0.00000000    0.00000000    0.00000000
     atom   17 type  1   force =     0.00000000    0.00000000    0.00000000
     atom   18 type  1   force =     0.00000000    0.00000000    0.00000000
     atom   19 type  1   force =     0.00000000    0.00000000    0.00000000
     atom   20 type  1   force =     0.00000000    0.00000000    0.00000000
     atom   21 type  1   force =     0.00000000    0.00000000    0.00000000
     atom   22 type  1   force =     0.00000000    0.00000000    0.00000000
     atom   23 type  1   force =     0.00000000    0.00000000    0.00000000
     atom   24 type  1   force =     0.00000000    0.00000000    0.00000000
     atom   25 type  1   force =     0.00000000    0.00000000    0.00000000
     atom   26 type  1   force =     0.00000000    0.00000000    0.00000000
     atom   27 type  1   force =     0.00000000    0.00000000    0.00000000
     atom   28 type  1   force =     0.00000000    0.00000000    0.00000000
     atom   29 type  1   force =     0.00000000    0.00000000    0.00000000
     atom   30 type  1   force =     0.00000000    0.00000000    0.00000000
     atom   31 type  1   force =     0.00000000    0.00000000    0.00000000
     atom   32 type  1   force =     0.00000000    0.00000000    0.00000000
     atom   33 type  1   force =     0.00000000    0.00000000    0.00000000
     atom   34 type  1   force =     0.00000000    0.00000000    0.00000000
     atom   35 type  1   force =     0.00000000    0.00000000    0.00000000
     atom   36 type  1   force =     0.00000000    0.00000000    0.00000000
     atom   37 type  1   force =     0.00000000    0.00000000    0.00000000
     atom   38 type  1   force =     0.00000000    0.00000000    0.00000000
     atom   39 type  1   force =     0.00000000    0.00000000    0.00000000
     atom   40 type  1   force =     0.00000000    0.00000000    0.00000000
     atom   41 type  1   force =     0.00000000    0.00000000    0.00000000
     atom   42 type  1   force =     0.00000000    0.00000000    0.00000000
     atom   43 type  1   force =     0.00000000    0.00000000    0.00000000
     atom   44 type  1   force =     0.00000000    0.00000000    0.00000000
     atom   45 type  1   force =     0.00000000    0.00000000    0.00000000
     atom   46 type  1   force =     0.00000000    0.00000000    0.00000000
     atom   47 type  1   force =     0.00000000    0.00000000    0.00000000
     atom   48 type  1   force =     0.00000000    0.00000000    0.00000000
     The Hubbard contrib.    to forces
     atom    1 type  1   force =     0.00000000    0.00000000    0.00000000
     atom    2 type  1   force =     0.00000000    0.00000000    0.00000000
     atom    3 type  1   force =     0.00000000    0.00000000    0.00000000
     atom    4 type  1   force =     0.00000000    0.00000000    0.00000000
     atom    5 type  1   force =     0.00000000    0.00000000    0.00000000
     atom    6 type  1   force =     0.00000000    0.00000000    0.00000000
     atom    7 type  1   force =     0.00000000    0.00000000    0.00000000
     atom    8 type  1   force =     0.00000000    0.00000000    0.00000000
     atom    9 type  1   force =     0.00000000    0.00000000    0.00000000
     atom   10 type  1   force =     0.00000000    0.00000000    0.00000000
     atom   11 type  1   force =     0.00000000    0.00000000    0.00000000
     atom   12 type  1   force =     0.00000000    0.00000000    0.00000000
     atom   13 type  1   force =     0.00000000    0.00000000    0.00000000
     atom   14 type  1   force =     0.00000000    0.00000000    0.00000000
     atom   15 type  1   force =     0.00000000    0.00000000    0.00000000
     atom   16 type  1   force =     0.00000000    0.00000000    0.00000000
     atom   17 type  1   force =     0.00000000    0.00000000    0.00000000
     atom   18 type  1   force =     0.00000000    0.00000000    0.00000000
     atom   19 type  1   force =     0.00000000    0.00000000    0.00000000
     atom   20 type  1   force =     0.00000000    0.00000000    0.00000000
     atom   21 type  1   force =     0.00000000    0.00000000    0.00000000
     atom   22 type  1   force =     0.00000000    0.00000000    0.00000000
     atom   23 type  1   force =     0.00000000    0.00000000    0.00000000
     atom   24 type  1   force =     0.00000000    0.00000000    0.00000000
     atom   25 type  1   force =     0.00000000    0.00000000    0.00000000
     atom   26 type  1   force =     0.00000000    0.00000000    0.00000000
     atom   27 type  1   force =     0.00000000    0.00000000    0.00000000
     atom   28 type  1   force =     0.00000000    0.00000000    0.00000000
     atom   29 type  1   force =     0.00000000    0.00000000    0.00000000
     atom   30 type  1   force =     0.00000000    0.00000000    0.00000000
     atom   31 type  1   force =     0.00000000    0.00000000    0.00000000
     atom   32 type  1   force =     0.00000000    0.00000000    0.00000000
     atom   33 type  1   force =     0.00000000    0.00000000    0.00000000
     atom   34 type  1   force =     0.00000000    0.00000000    0.00000000
     atom   35 type  1   force =     0.00000000    0.00000000    0.00000000
     atom   36 type  1   force =     0.00000000    0.00000000    0.00000000
     atom   37 type  1   force =     0.00000000    0.00000000    0.00000000
     atom   38 type  1   force =     0.00000000    0.00000000    0.00000000
     atom   39 type  1   force =     0.00000000    0.00000000    0.00000000
     atom   40 type  1   force =     0.00000000    0.00000000    0.00000000
     atom   41 type  1   force =     0.00000000    0.00000000    0.00000000
     atom   42 type  1   force =     0.00000000    0.00000000    0.00000000
     atom   43 type  1   force =     0.00000000    0.00000000    0.00000000
     atom   44 type  1   force =     0.00000000    0.00000000    0.00000000
     atom   45 type  1   force =     0.00000000    0.00000000    0.00000000
     atom   46 type  1   force =     0.00000000    0.00000000    0.00000000
     atom   47 type  1   force =     0.00000000    0.00000000    0.00000000
     atom   48 type  1   force =     0.00000000    0.00000000    0.00000000
     The SCF correction term to forces
     atom    1 type  1   force =    -0.00000000   -0.00000007    0.00000032
     atom    2 type  1   force =     0.00000005   -0.00000008    0.00000098
     atom    3 type  1   force =    -0.00000000   -0.00000008    0.00000272
     atom    4 type  1   force =    -0.00000000   -0.00000006    0.00000262
     atom    5 type  1   force =     0.00000005   -0.00000014    0.00000011
     atom    6 type  1   force =     0.00000000   -0.00000004   -0.00000437
     atom    7 type  1   force =    -0.00000000   -0.00000004    0.00000258
     atom    8 type  1   force =     0.00000002   -0.00000015    0.00000013
     atom    9 type  1   force =    -0.00000000   -0.00000005   -0.00000048
     atom   10 type  1   force =    -0.00000000   -0.00000005   -0.00000364
     atom   11 type  1   force =    -0.00000002   -0.00000006   -0.00000076
     atom   12 type  1   force =    -0.00000000   -0.00000010   -0.00000017
     atom   13 type  1   force =    -0.00000001    0.00000008    0.00000031
     atom   14 type  1   force =    -0.00000000    0.00000001    0.00000100
     atom   15 type  1   force =     0.00000006    0.00000005    0.00000285
     atom   16 type  1   force =    -0.00000000    0.00000003    0.00000241
     atom   17 type  1   force =     0.00000000    0.00000011    0.00000012
     atom   18 type  1   force =     0.00000001    0.00000000   -0.00000437
     atom   19 type  1   force =    -0.00000002    0.00000004    0.00000260
     atom   20 type  1   force =    -0.00000000    0.00000014    0.00000016
     atom   21 type  1   force =     0.00000003    0.00000005   -0.00000057
     atom   22 type  1   force =    -0.00000004    0.00000009   -0.00000362
     atom   23 type  1   force =    -0.00000000    0.00000010   -0.00000073
     atom   24 type  1   force =     0.00000006    0.00000006   -0.00000017
     atom   25 type  1   force =     0.00000000   -0.00000010    0.00000032
     atom   26 type  1   force =    -0.00000005   -0.00000008    0.00000098
     atom   27 type  1   force =     0.00000000   -0.00000001    0.00000276
     atom   28 type  1   force =    -0.00000000   -0.00000006    0.00000265
     atom   29 type  1   force =    -0.00000005   -0.00000014    0.00000011
     atom   30 type  1   force =     0.00000000   -0.00000002   -0.00000443
     atom   31 type  1   force =    -0.00000000   -0.00000003    0.00000260
     atom   32 type  1   force =    -0.00000002   -0.00000015    0.00000013
     atom   33 type  1   force =    -0.00000000   -0.00000002   -0.00000046
     atom   34 type  1   force =     0.00000000   -0.00000010   -0.00000369
     atom   35 type  1   force =     0.00000002   -0.00000006   -0.00000076
     atom   36 type  1   force =     0.00000000   -0.00000003   -0.00000012
     atom   37 type  1   force =     0.00000001    0.00000008    0.00000031
     atom   38 type  1   force =    -0.00000000    0.00000007    0.00000103
     atom   39 type  1   force =    -0.00000006    0.00000005    0.00000285
     atom   40 type  1   force =     0.00000000    0.00000003    0.00000241
     atom   41 type  1   force =    -0.00000000    0.00000017    0.00000014
     atom   42 type  1   force =    -0.00000001    0.00000000   -0.00000437
     atom   43 type  1   force =     0.00000002    0.00000004    0.00000260
     atom   44 type  1   force =    -0.00000000    0.00000016    0.00000014
     atom   45 type  1   force =    -0.00000003    0.00000005   -0.00000057
     atom   46 type  1   force =     0.00000004    0.00000009   -0.00000362
     atom   47 type  1   force =     0.00000000    0.00000008   -0.00000080
     atom   48 type  1   force =    -0.00000006    0.00000006   -0.00000017

     Total force =     0.001596     Total SCF correction =     0.000015
     Energy error            =      1.6E-07 Ry
     Gradient error          =      3.9E-04 Ry/Bohr

     bfgs converged in  24 scf cycles and  22 bfgs steps
     (criteria: energy <  1.0E-05 Ry, force <  3.9E-04 Ry/Bohr)

     End of BFGS Geometry Optimization

     Final energy             =    -722.0780092527 Ry

     File ./Li/Lithium.bfgs deleted, as requested
Begin final coordinates

ATOMIC_POSITIONS (angstrom)
Li              -0.0000000100        0.0000243850       25.1713049069
Li               2.4290837121        1.4024895012       21.2660701023
Li               4.8580444100        2.8048444104       22.9509798054
Li               0.0000000100        0.0000028007       22.1480749463
Li               2.4290596176        1.4024867879       24.1405011501
Li               4.8580445000        2.8046307630       19.6049121220
Li               0.0000000000       -0.0001172891       31.6093004286
Li               2.4289570002        1.4024388447       27.0705038861
Li               4.8580444100        2.8048047875       29.0501460316
Li              -0.0000000100        0.0000235119       28.2550310977
Li               2.4289387336        1.4023815297       29.9336720626
Li               4.8580444200        2.8048667630       26.0418946626
Li               2.4290907938        4.2071276990       25.1712276434
Li               4.8580443900        5.6095095125       21.2658592552
Li               7.2870293508        7.0120207513       22.9509370593
Li               2.4290901124        4.2071885611       22.1480563595
Li               4.8580444100        5.6095008345       24.1403570309
Li               7.2870790898        7.0121774361       19.6049549471
Li               2.4289367745        4.2072631655       31.6093174806
Li               4.8580444000        5.6095546700       27.0703703429
Li               7.2869568366        7.0119607605       29.0502009695
Li               2.4290101851        4.2071327817       28.2549657659
Li               4.8580444000        5.6095633928       29.9335035372
Li               7.2869774912        7.0119557736       26.0419469985
Li               4.8580444000        0.0001079199       25.1712367262
Li               7.2870051079        1.4024894812       21.2660702523
Li               9.7160888200        2.8047667936       22.9510020029
Li               4.8580443900        0.0001199814       22.1480132221
Li               7.2870292024        1.4024867879       24.1405012301
Li               9.7160887400        2.8047042997       19.6049331027
Li               4.8580444000       -0.0001584449       31.6093097957
Li               7.2871318198        1.4024388447       27.0705039361
Li               9.7160888300        2.8047140542       29.0502799084
Li               4.8580444000        0.0000047471       28.2550153501
Li               7.2871500864        1.4023815197       29.9336721026
Li               9.7160888200        2.8047538663       26.0420469048
Li               7.2869980163        4.2071277090       25.1712276434
Li               9.7160888400        5.6095992898       21.2658056260
Li              12.1451482993        7.0120207613       22.9509370693
Li               7.2869986976        4.2071885811       22.1480563695
Li               9.7160888300        5.6095328298       24.1403212775
Li              12.1450985602        7.0121775461       19.6049549571
Li               7.2871520355        4.2072631755       31.6093174706
Li               9.7160888300        5.6094812956       27.0703641051
Li              12.1452208135        7.0119607605       29.0502009695
Li               7.2870786349        4.2071327817       28.2549657558
Li               9.7160888300        5.6095109996       29.9334892106
Li              12.1452001688        7.0119557836       26.0419469985
End final coordinates



     Writing all to output data dir ./Li/Lithium.save/ :
     XML data file
     init_run     :     17.14s CPU     18.96s WALL (       1 calls)
     electrons    :  22783.92s CPU  23029.39s WALL (      24 calls)
     update_pot   :      5.68s CPU      5.83s WALL (      23 calls)
     forces       :   2664.05s CPU   2671.78s WALL (      24 calls)

     Called by init_run:
     wfcinit      :      2.21s CPU      3.06s WALL (       1 calls)
     wfcinit:wfcr :      2.07s CPU      2.92s WALL (       8 calls)
     potinit      :      0.21s CPU      0.29s WALL (       1 calls)
     hinit0       :      8.18s CPU      8.92s WALL (       1 calls)

     Called by electrons:
     c_bands      :  13569.61s CPU  13760.16s WALL (     488 calls)
     sum_band     :    565.11s CPU    577.04s WALL (     488 calls)
     v_of_rho     :     77.39s CPU     78.04s WALL (     490 calls)
     v_h          :      6.64s CPU      6.68s WALL (     490 calls)
     v_xc         :     70.74s CPU     71.35s WALL (     490 calls)
     newd         :     24.55s CPU     25.45s WALL (     490 calls)
     PAW_pot      :     16.28s CPU     17.47s WALL (     513 calls)
     mix_rho      :    177.24s CPU    179.02s WALL (     488 calls)

     Called by c_bands:
     init_us_2    :     79.08s CPU     79.44s WALL (    8192 calls)
     cegterg      :  10295.41s CPU  10474.64s WALL (    7109 calls)

     Called by sum_band:
     sum_band:wei :      3.36s CPU      3.38s WALL (     488 calls)
     sum_band:loo :    513.92s CPU    518.31s WALL (     488 calls)
     sum_band:buf :      7.61s CPU      7.70s WALL (    3904 calls)
     sum_band:ini :     38.09s CPU     38.22s WALL (    3904 calls)
     sum_band:cal :     95.29s CPU     96.14s WALL (    4088 calls)
     sum_band:bec :      2.03s CPU      2.28s WALL (    4088 calls)
     addusdens    :     16.52s CPU     23.31s WALL (     488 calls)
                                        0.00s GPU  (     488 calls)
     addusd:skk   :      3.54s CPU      7.22s WALL (     488 calls)
                                        0.00s GPU  (     488 calls)

     Called by *egterg:
     cdiaghg      :   2960.42s CPU   2988.98s WALL (  118348 calls)
     cegterg:over :    851.27s CPU    861.64s WALL (  111682 calls)
     cegterg:upda :    558.56s CPU    571.68s WALL (  111682 calls)
     cegterg:last :    152.66s CPU    153.13s WALL (    8264 calls)
     h_psi        :   4947.35s CPU   5005.96s WALL (  118799 calls)
     s_psi        :    538.95s CPU    542.52s WALL (  118799 calls)
     g_psi        :     13.08s CPU     13.20s WALL (  111682 calls)

     Called by h_psi:
     h_psi:calbec :    712.17s CPU    716.99s WALL (  118799 calls)
     vloc_psi     :   3657.15s CPU   3688.17s WALL (  118799 calls)
                                        0.00s GPU  (  118799 calls)
     add_vuspsi   :    545.94s CPU    548.24s WALL (  118799 calls)

     General routines
     calbec       :    823.68s CPU    829.64s WALL (  123655 calls)
     fft          :     71.44s CPU     72.12s WALL (    6415 calls)
     ffts         :     86.33s CPU     86.95s WALL (   55344 calls)
     fftw         :   3631.11s CPU   3660.72s WALL ( 5065634 calls)
     interpolate  :      5.66s CPU      5.70s WALL (     490 calls)
 
     Parallel routines

     PAW routines
     PAW_pot      :     16.28s CPU     17.47s WALL (     513 calls)
     PAW_symme    :      0.93s CPU      0.94s WALL (    1001 calls)
 
     Environ routines
 
     PWSCF        :      7h15m CPU      7h19m WALL

 
   This run was terminated on:  20:55:33   6Jan2025            

=------------------------------------------------------------------------------=
   JOB DONE.
=------------------------------------------------------------------------------=
