
     Program PWSCF v.7.4 starts on  3Jan2025 at 11:48: 6 

     This program is part of the open-source Quantum ESPRESSO suite
     for quantum simulation of materials; please cite
         "P. Giannozzi et al., J. Phys.:Condens. Matter 21 395502 (2009);
         "P. Giannozzi et al., J. Phys.:Condens. Matter 29 465901 (2017);
         "P. Giannozzi et al., J. Chem. Phys. 152 154105 (2020);
          URL http://www.quantum-espresso.org", 
     in publications or presentations arising from this work. More details at
     http://www.quantum-espresso.org/quote

     Parallel version (MPI & OpenMP), running on     512 processor cores
     Number of MPI processes:               512
     Threads/MPI process:                     1

     MPI processes distributed on     4 nodes
     228269 MiB available memory on the printing compute node when the environment starts

     Reading input from espresso.pwi
Warning: card &CELL ignored
Warning: card    PRESS_CONV_THR   = 0.1 ignored
Warning: card    CELL_DOFREE      = 'ALL' ignored
Warning: card / ignored
Warning: card &FCP ignored
Warning: card / ignored
Warning: card &RISM ignored
Warning: card / ignored

     Current dimensions of program PWSCF are:
     Max number of different atomic species (ntypx) = 10
     Max number of k-points (npk) =  40000
     Max angular momentum in pseudopotentials (lmaxx) =  4

     IMPORTANT: XC functional enforced from input :
     Exchange-correlation= PBE
                           (   1   4   3   4   0   0   0)
     Any further DFT definition will be discarded
     Please, verify this is what you really want


     Reading input from environ.in:
     * using ionic solvent mode
     * setting boundary derivatives method to SSCS default
     * setting electrolyte-boundary derivatives method to SSCS default

Environ Warning (1001): card EOF ignored

     

     K-points division:     npool     =       2
     R & G space division:  proc/nbgrp/npool/nimage =     256
     Subspace diagonalization in iterative solution of the eigenvalue problem:
     one sub-group per band group will be used
     ELPA distributed-memory algorithm (size of sub-group:  2*  2 procs)


     Parallelization info
     --------------------
     sticks:   dense  smooth     PW     G-vecs:    dense   smooth      PW
     Min          86      34      9                52542    13274    1767
     Max          87      35     10                52593    13321    1811
     Sum       22119    8865   2329             13455463  3404289  459339

     Using Slab Decomposition



     bravais-lattice index     =           12
     lattice parameter (alat)  =      18.3607  a.u.
     unit-cell volume          =   35212.2554 (a.u.)^3
     number of atoms/cell      =           68
     number of atomic types    =            1
     number of electrons       =       204.00
     number of Kohn-Sham states=          153
     kinetic-energy cutoff     =      80.0000  Ry
     charge density cutoff     =     800.0000  Ry
     scf convergence threshold =      1.0E-06
     mixing beta               =       0.2000
     number of iterations used =            8  local-TF  mixing
     energy convergence thresh.=      1.0E-05
     force convergence thresh. =      3.9E-04
     Exchange-correlation= PBE
                           (   1   4   3   4   0   0   0)
     nstep                     =          999


     ================================================================================

                                  Environ Setup Summary

     ================================================================================

     Please cite

          O. Andreussi, I. Dabo and N. Marzari, J. Chem. Phys. 136, 064102 (2012)
          F. Nattino, M. Truscott, N. Marzari, and O. Andreussi, J. Chem. Phys. 150, 041722 (2019)

     in publications or presentations arising from this work.

     ================================================================================

     Parameters
     ==========

     compensation onset threshold      =               0.1000E+00
     static permittivity               =                    89.90
     surface tension in input (dyn/cm) =                    37.30
     surface tension in internal units =               0.4792E-04

     Solvent Boundary
     ================

     solvent mode                      =                    ionic
     derivatives method                =                   lowmem
     electrolyte derivatives method    =                   lowmem
     numerical core for derivatives    =                      fft
     switching function adopted        =                     SCCS
     density limit for vacuum region   =               0.5000E-02
     density limit for bulk solvent    =               0.1000E-03
     soft-sphere radius mode           =                    bondi
     soft-sphere softness              =                     0.50
     alpha                             =                     1.32

     Electrostatic Setup
     ===================

     electrostatic problem to solve    =                    modpb
     numerical solver adopted          =                   newton
     type of auxiliary density adopted =                     none
     numerical core for poisson        =                      fft
     adopting a nested solver scheme
     inner solver                      =                       cg
     inner core                        =                      fft
     type of pbc corrections           =                parabolic
     numerical core for corrections    =                      1da

     ================================================================================


     >>>>> Grand-Canonical SCF is activated <<<<<
     Initial Total Charge  =     0.000000 e
     Target Fermi Energy   =    -2.904000 eV
     Thr. of Fermi Energy  =     0.001000 eV
     Wave-shift of Kerker  =     0.400000 bohr^-1
     Wave-shift of Hartree =     1.500000 bohr^-1
     Mixing Rate of Fermi  =     0.050000

     celldm(1)=  18.360747  celldm(2)=   1.060660  celldm(3)=   5.518976
     celldm(4)=  -0.235702  celldm(5)=   0.000000  celldm(6)=   0.000000

     crystal axes: (cart. coord. in units of alat)
               a(1) = (   1.000000   0.000000   0.000000 )  
               a(2) = (  -0.250000   1.030776   0.000000 )  
               a(3) = (   0.000000   0.000000   5.518976 )  

     reciprocal axes: (cart. coord. in units 2 pi/alat)
               b(1) = (  1.000000  0.242536 -0.000000 )  
               b(2) = (  0.000000  0.970143  0.000000 )  
               b(3) = (  0.000000 -0.000000  0.181193 )  


     PseudoPot. # 1 for Li read from file:
     /work/e89/e89/ba3g18/Repos/Pseudopotentials/Pslibrary/Li.pbe-sl-kjpaw_psl.1.0.0.UPF
     MD5 check sum: 3f4d2cafebb47c6c3aa8ed472e6f074d
     Pseudo is Projector augmented-wave, Zval =  3.0
     Generated using 'atomic' code by A. Dal Corso  v.7.4
     Shape of augmentation charge: PSQ
     Using radial grid of 1017 points,  4 beta functions with: 
                l(1) =   0
                l(2) =   0
                l(3) =   1
                l(4) =   1
     Q(r) pseudized with 0 coefficients 


     atomic species   valence    mass     pseudopotential
     Li                3.00     6.94000     Li( 1.00)

     No symmetry found


                                    s                        frac. trans.

      isym =  1     identity                                     

 cryst.   s( 1) = (     1          0          0      )
                  (     0          1          0      )
                  (     0          0          1      )

 cart.    s( 1) = (  1.0000000  0.0000000  0.0000000 )
                  (  0.0000000  1.0000000  0.0000000 )
                  (  0.0000000  0.0000000  1.0000000 )


     point group C_1 (1)    
     there are  1 classes
     the character table:

       E    
A      1.00

     the symmetry operations in each class and the name of the first element:

     E        1
          identity                                               

   Cartesian axes

     site n.     atom                  positions (alat units)
         1        Li     tau(   1) = (  -0.0003679   0.0433998   2.0563519  )
         2        Li     tau(   2) = (   0.0002351   0.6022761   3.4289479  )
         3        Li     tau(   3) = (   0.2501900   0.7902280   3.2601035  )
         4        Li     tau(   4) = (   0.2503536   0.1931280   3.2922704  )
         5        Li     tau(   5) = (   0.0002536   0.3645612   3.1717414  )
         6        Li     tau(   6) = (   0.2501062   0.5522532   2.9926474  )
         7        Li     tau(   7) = (   0.2499580   0.9089890   2.6493999  )
         8        Li     tau(   8) = (   0.0002288   0.9678959   3.0941836  )
         9        Li     tau(   9) = (   0.0001508   0.1217782   2.9086789  )
        10        Li     tau(  10) = (   0.2499194   0.3076469   2.7224121  )
        11        Li     tau(  11) = (  -0.0001730   0.4823383   2.5656155  )
        12        Li     tau(  12) = (   0.2498623   0.6642702   2.3817689  )
        13        Li     tau(  13) = (   0.0000424   0.7251320   2.8307205  )
        14        Li     tau(  14) = (   0.2498150   0.0533825   2.5056114  )
        15        Li     tau(  15) = (  -0.0003224   0.2441062   2.3118827  )
        16        Li     tau(  16) = (   0.2498466   0.3935431   2.1186106  )
        17        Li     tau(  17) = (  -0.0002494   0.8498761   2.2319724  )
        18        Li     tau(  18) = (   0.0003132   0.0590648   3.2070930  )
        19        Li     tau(  19) = (   0.0001383   0.6696755   3.1372075  )
        20        Li     tau(  20) = (   0.2501725   0.8516071   2.9533612  )
        21        Li     tau(  21) = (   0.2501847   0.2497847   3.0133724  )
        22        Li     tau(  22) = (   0.0000411   0.4249565   2.8695769  )
        23        Li     tau(  23) = (   0.2499578   0.6088138   2.6882550  )
        24        Li     tau(  24) = (   0.2497458   0.9693844   2.3472356  )
        25        Li     tau(  25) = (   0.0000803   1.0262978   2.7965697  )
        26        Li     tau(  26) = (  -0.0001536   0.1813908   2.6102959  )
        27        Li     tau(  27) = (   0.2497716   0.3660488   2.4247954  )
        28        Li     tau(  28) = (  -0.0001886   0.5437189   2.2588734  )
        29        Li     tau(  29) = (   0.2497648   0.7316663   2.0900275  )
        30        Li     tau(  30) = (  -0.0001066   0.7816918   2.5263271  )
        31        Li     tau(  31) = (   0.2496468   0.1100436   2.2267201  )
        32        Li     tau(  32) = (   0.0004173   0.2597764   3.4626236  )
        33        Li     tau(  33) = (   0.2502503   0.4840719   3.2870016  )
        34        Li     tau(  34) = (   0.0001515   0.9403968   3.4003656  )
        35        Li     tau(  35) = (   0.4995650   0.0433908   2.0563526  )
        36        Li     tau(  36) = (   0.5002415   0.6022704   3.4289524  )
        37        Li     tau(  37) = (   0.7501975   0.7902296   3.2601033  )
        38        Li     tau(  38) = (   0.7503537   0.1931318   3.2922932  )
        39        Li     tau(  39) = (   0.5002517   0.3645616   3.1717404  )
        40        Li     tau(  40) = (   0.7501030   0.5522535   2.9926417  )
        41        Li     tau(  41) = (   0.7499609   0.9089902   2.6494011  )
        42        Li     tau(  42) = (   0.5002286   0.9678995   3.0941764  )
        43        Li     tau(  43) = (   0.5001534   0.1217788   2.9086805  )
        44        Li     tau(  44) = (   0.7499211   0.3076469   2.7224171  )
        45        Li     tau(  45) = (   0.4998259   0.4823385   2.5656142  )
        46        Li     tau(  46) = (   0.7498592   0.6642647   2.3817605  )
        47        Li     tau(  47) = (   0.5000437   0.7251323   2.8307264  )
        48        Li     tau(  48) = (   0.7498139   0.0533887   2.5055843  )
        49        Li     tau(  49) = (   0.4996908   0.2441043   2.3118827  )
        50        Li     tau(  50) = (   0.7498511   0.3935688   2.1186211  )
        51        Li     tau(  51) = (   0.4997483   0.8498687   2.2319842  )
        52        Li     tau(  52) = (   0.5003195   0.0590641   3.2070936  )
        53        Li     tau(  53) = (   0.5001396   0.6696808   3.1372152  )
        54        Li     tau(  54) = (   0.7501747   0.8516078   2.9533615  )
        55        Li     tau(  55) = (   0.7501859   0.2497843   3.0133838  )
        56        Li     tau(  56) = (   0.5000394   0.4249559   2.8695748  )
        57        Li     tau(  57) = (   0.7499563   0.6088140   2.6882504  )
        58        Li     tau(  58) = (   0.7497485   0.9693845   2.3472349  )
        59        Li     tau(  59) = (   0.5000786   1.0263003   2.7965537  )
        60        Li     tau(  60) = (   0.4998489   0.1813918   2.6102974  )
        61        Li     tau(  61) = (   0.7497715   0.3660468   2.4247970  )
        62        Li     tau(  62) = (   0.4998007   0.5437147   2.2588718  )
        63        Li     tau(  63) = (   0.7497577   0.7316787   2.0900243  )
        64        Li     tau(  64) = (   0.4998969   0.7816937   2.5263359  )
        65        Li     tau(  65) = (   0.7496472   0.1100359   2.2266680  )
        66        Li     tau(  66) = (   0.5003873   0.2597724   3.4626228  )
        67        Li     tau(  67) = (   0.7502501   0.4840749   3.2869937  )
        68        Li     tau(  68) = (   0.5001506   0.9403827   3.4003548  )

   Crystallographic axes

     site n.     atom                  positions (cryst. coord.)
         1        Li     tau(   1) = (  0.0101581  0.0421040  0.3725966  )
         2        Li     tau(   2) = (  0.1463086  0.5842939  0.6213015  )
         3        Li     tau(   3) = (  0.4418485  0.7666341  0.5907080  )
         4        Li     tau(   4) = (  0.2971940  0.1873618  0.5965365  )
         5        Li     tau(   5) = (  0.0886727  0.3536764  0.5746974  )
         6        Li     tau(   6) = (  0.3840474  0.5357645  0.5422469  )
         7        Li     tau(   7) = (  0.4704203  0.8818492  0.4800528  )
         8        Li     tau(   8) = (  0.2349782  0.9389973  0.5606445  )
         9        Li     tau(   9) = (  0.0296864  0.1181423  0.5270323  )
        10        Li     tau(  10) = (  0.3245348  0.2984614  0.4932821  )
        11        Li     tau(  11) = (  0.1168112  0.4679371  0.4648716  )
        12        Li     tau(  12) = (  0.4109715  0.6444370  0.4315599  )
        13        Li     tau(  13) = (  0.1759128  0.7034816  0.5129068  )
        14        Li     tau(  14) = (  0.2627621  0.0517886  0.4539993  )
        15        Li     tau(  15) = (  0.0588821  0.2368179  0.4188970  )
        16        Li     tau(  16) = (  0.3452948  0.3817930  0.3838775  )
        17        Li     tau(  17) = (  0.2058759  0.8245012  0.4044178  )
        18        Li     tau(  18) = (  0.0146386  0.0573013  0.5811029  )
        19        Li     tau(  19) = (  0.1625586  0.6496810  0.5684401  )
        20        Li     tau(  20) = (  0.4567177  0.8261806  0.5351285  )
        21        Li     tau(  21) = (  0.3107664  0.2423268  0.5460021  )
        22        Li     tau(  22) = (  0.1031082  0.4122685  0.5199473  )
        23        Li     tau(  23) = (  0.3976169  0.5906364  0.4870931  )
        24        Li     tau(  24) = (  0.4848562  0.9404414  0.4253027  )
        25        Li     tau(  25) = (  0.2489942  0.9956555  0.5067190  )
        26        Li     tau(  26) = (  0.0438401  0.1759749  0.4729674  )
        27        Li     tau(  27) = (  0.3385515  0.3551196  0.4393560  )
        28        Li     tau(  28) = (  0.1316826  0.5274850  0.4092921  )
        29        Li     tau(  29) = (  0.4272200  0.7098209  0.3786984  )
        30        Li     tau(  30) = (  0.1894816  0.7583528  0.4577529  )
        31        Li     tau(  31) = (  0.2763363  0.1067580  0.4034662  )
        32        Li     tau(  32) = (  0.0634224  0.2520202  0.6274033  )
        33        Li     tau(  33) = (  0.3676551  0.4696189  0.5955818  )
        34        Li     tau(  34) = (  0.2282313  0.9123192  0.6161226  )
        35        Li     tau(  35) = (  0.5100888  0.0420953  0.3725968  )
        36        Li     tau(  36) = (  0.6463136  0.5842883  0.6213023  )
        37        Li     tau(  37) = (  0.9418564  0.7666356  0.5907080  )
        38        Li     tau(  38) = (  0.7971950  0.1873654  0.5965406  )
        39        Li     tau(  39) = (  0.5886709  0.3536768  0.5746973  )
        40        Li     tau(  40) = (  0.8840442  0.5357648  0.5422458  )
        41        Li     tau(  41) = (  0.9704235  0.8818504  0.4800530  )
        42        Li     tau(  42) = (  0.7349788  0.9390008  0.5606432  )
        43        Li     tau(  43) = (  0.5296891  0.1181429  0.5270326  )
        44        Li     tau(  44) = (  0.8245365  0.2984615  0.4932830  )
        45        Li     tau(  45) = (  0.6168102  0.4679373  0.4648714  )
        46        Li     tau(  46) = (  0.9109671  0.6444317  0.4315584  )
        47        Li     tau(  47) = (  0.6759142  0.7034820  0.5129079  )
        48        Li     tau(  48) = (  0.7627625  0.0517946  0.4539944  )
        49        Li     tau(  49) = (  0.5588948  0.2368160  0.4188970  )
        50        Li     tau(  50) = (  0.8453056  0.3818179  0.3838794  )
        51        Li     tau(  51) = (  0.7058719  0.8244941  0.4044200  )
        52        Li     tau(  52) = (  0.5146447  0.0573006  0.5811030  )
        53        Li     tau(  53) = (  0.6625611  0.6496861  0.5684415  )
        54        Li     tau(  54) = (  0.9567200  0.8261812  0.5351285  )
        55        Li     tau(  55) = (  0.8107675  0.2423264  0.5460042  )
        56        Li     tau(  56) = (  0.6031064  0.4122679  0.5199470  )
        57        Li     tau(  57) = (  0.8976154  0.5906365  0.4870922  )
        58        Li     tau(  58) = (  0.9848589  0.9404415  0.4253026  )
        59        Li     tau(  59) = (  0.7489931  0.9956579  0.5067161  )
        60        Li     tau(  60) = (  0.5438429  0.1759760  0.4729677  )
        61        Li     tau(  61) = (  0.8385509  0.3551177  0.4393563  )
        62        Li     tau(  62) = (  0.6316709  0.5274809  0.4092918  )
        63        Li     tau(  63) = (  0.9272159  0.7098329  0.3786978  )
        64        Li     tau(  64) = (  0.6894856  0.7583546  0.4577545  )
        65        Li     tau(  65) = (  0.7763348  0.1067506  0.4034567  )
        66        Li     tau(  66) = (  0.5633914  0.2520164  0.6274031  )
        67        Li     tau(  67) = (  0.8676555  0.4696218  0.5955804  )
        68        Li     tau(  68) = (  0.7282270  0.9123056  0.6161206  )

     number of k points=    25  Marzari-Vanderbilt smearing, width (Ry)=  0.0100
                       cart. coord. in units 2pi/alat
        k(    1) = (   0.0000000   0.0000000   0.0000000), wk =   0.0408163
        k(    2) = (   0.0000000   0.1385918   0.0000000), wk =   0.0816327
        k(    3) = (   0.0000000   0.2771837   0.0000000), wk =   0.0816327
        k(    4) = (   0.0000000   0.4157755   0.0000000), wk =   0.0816327
        k(    5) = (   0.1428571   0.0346480   0.0000000), wk =   0.0816327
        k(    6) = (   0.1428571   0.1732398   0.0000000), wk =   0.0816327
        k(    7) = (   0.1428571   0.3118316   0.0000000), wk =   0.0816327
        k(    8) = (   0.1428571   0.4504235   0.0000000), wk =   0.0816327
        k(    9) = (   0.1428571  -0.3811276   0.0000000), wk =   0.0816327
        k(   10) = (   0.1428571  -0.2425357   0.0000000), wk =   0.0816327
        k(   11) = (   0.1428571  -0.1039439   0.0000000), wk =   0.0816327
        k(   12) = (   0.2857143   0.0692959   0.0000000), wk =   0.0816327
        k(   13) = (   0.2857143   0.2078878   0.0000000), wk =   0.0816327
        k(   14) = (   0.2857143   0.3464796   0.0000000), wk =   0.0816327
        k(   15) = (   0.2857143   0.4850714   0.0000000), wk =   0.0816327
        k(   16) = (   0.2857143  -0.3464796   0.0000000), wk =   0.0816327
        k(   17) = (   0.2857143  -0.2078878   0.0000000), wk =   0.0816327
        k(   18) = (   0.2857143  -0.0692959   0.0000000), wk =   0.0816327
        k(   19) = (   0.4285714   0.1039439   0.0000000), wk =   0.0816327
        k(   20) = (   0.4285714   0.2425357   0.0000000), wk =   0.0816327
        k(   21) = (   0.4285714   0.3811276   0.0000000), wk =   0.0816327
        k(   22) = (   0.4285714   0.5197194   0.0000000), wk =   0.0816327
        k(   23) = (   0.4285714  -0.3118316   0.0000000), wk =   0.0816327
        k(   24) = (   0.4285714  -0.1732398   0.0000000), wk =   0.0816327
        k(   25) = (   0.4285714  -0.0346480   0.0000000), wk =   0.0816327

                       cryst. coord.
        k(    1) = (   0.0000000   0.0000000   0.0000000), wk =   0.0408163
        k(    2) = (   0.0000000   0.1428571   0.0000000), wk =   0.0816327
        k(    3) = (   0.0000000   0.2857143   0.0000000), wk =   0.0816327
        k(    4) = (   0.0000000   0.4285714   0.0000000), wk =   0.0816327
        k(    5) = (   0.1428571   0.0000000   0.0000000), wk =   0.0816327
        k(    6) = (   0.1428571   0.1428571   0.0000000), wk =   0.0816327
        k(    7) = (   0.1428571   0.2857143   0.0000000), wk =   0.0816327
        k(    8) = (   0.1428571   0.4285714   0.0000000), wk =   0.0816327
        k(    9) = (   0.1428571  -0.4285714   0.0000000), wk =   0.0816327
        k(   10) = (   0.1428571  -0.2857143   0.0000000), wk =   0.0816327
        k(   11) = (   0.1428571  -0.1428571   0.0000000), wk =   0.0816327
        k(   12) = (   0.2857143   0.0000000   0.0000000), wk =   0.0816327
        k(   13) = (   0.2857143   0.1428571   0.0000000), wk =   0.0816327
        k(   14) = (   0.2857143   0.2857143   0.0000000), wk =   0.0816327
        k(   15) = (   0.2857143   0.4285714   0.0000000), wk =   0.0816327
        k(   16) = (   0.2857143  -0.4285714   0.0000000), wk =   0.0816327
        k(   17) = (   0.2857143  -0.2857143   0.0000000), wk =   0.0816327
        k(   18) = (   0.2857143  -0.1428571   0.0000000), wk =   0.0816327
        k(   19) = (   0.4285714   0.0000000   0.0000000), wk =   0.0816327
        k(   20) = (   0.4285714   0.1428571   0.0000000), wk =   0.0816327
        k(   21) = (   0.4285714   0.2857143   0.0000000), wk =   0.0816327
        k(   22) = (   0.4285714   0.4285714   0.0000000), wk =   0.0816327
        k(   23) = (   0.4285714  -0.4285714   0.0000000), wk =   0.0816327
        k(   24) = (   0.4285714  -0.2857143   0.0000000), wk =   0.0816327
        k(   25) = (   0.4285714  -0.1428571   0.0000000), wk =   0.0816327

     Dense  grid: 13455463 G-vectors     FFT dimensions: ( 180, 180, 960)

     Smooth grid:  3404289 G-vectors     FFT dimensions: ( 108, 120, 600)

     Dynamical RAM for                 wfc:       3.88 MB

     Dynamical RAM for     wfc (w. buffer):      54.32 MB

     Dynamical RAM for           str. fact:       0.80 MB

     Dynamical RAM for           local pot:       0.00 MB

     Dynamical RAM for          nlocal pot:      13.80 MB

     Dynamical RAM for                qrad:       0.65 MB

     Dynamical RAM for          rho,v,vnew:       5.37 MB

     Dynamical RAM for               rhoin:       1.79 MB

     Dynamical RAM for            rho*nmix:      12.84 MB

     Dynamical RAM for           G-vectors:       3.11 MB

     Dynamical RAM for          h,s,v(r/c):       4.29 MB

     Dynamical RAM for          <psi|beta>:       1.27 MB

     Dynamical RAM for                 psi:      15.52 MB

     Dynamical RAM for                hpsi:      15.52 MB

     Dynamical RAM for                spsi:      15.52 MB

     Dynamical RAM for      wfcinit/wfcrot:       8.30 MB

     Dynamical RAM for           addusdens:      44.93 MB

     Dynamical RAM for          addusforce:      98.75 MB

     Estimated static dynamical RAM per process >      86.39 MB

     Estimated max dynamical RAM per process >     205.31 MB

     Estimated total dynamical RAM >      95.78 GB

     Initial potential from superposition of free atoms

     starting charge     203.6866, renormalised to     204.0000

     negative rho (up, down):  5.773E-03 0.000E+00
     Starting wfcs are random
     Checking if some PAW data can be deallocated... 

     total cpu time spent up to now is       48.3 secs

     Self-consistent Calculation

     iteration #  1     ecut=    80.00 Ry     beta= 0.20
     Davidson diagonalization with overlap

---- Real-time Memory Report at c_bands before calling an iterative solver
          1219 MiB given to the printing process from OS
             0 MiB allocation reported by mallinfo(arena+hblkhd)
        207039 MiB available memory on the node where the printing process lives
------------------
     c_bands:  1 eigenvalues not converged
     c_bands:  1 eigenvalues not converged
     c_bands:  1 eigenvalues not converged
     c_bands:  1 eigenvalues not converged
     c_bands:  1 eigenvalues not converged
     c_bands:  2 eigenvalues not converged
     ethr =  1.00E-12,  avg # of iterations =148.0

     negative rho (up, down):  4.286E-03 0.000E+00

     total cpu time spent up to now is      775.8 secs

     total energy              =   -1022.28928010 Ry
     estimated scf accuracy    <       0.20471791 Ry

     total charge of GC-SCF    =       0.03535970 e
     the Fermi energy          =      -4.35315935 eV
                        (error :       1.44915935 eV)
     electrostatic embedding   =       0.00000000 Ry
     cavitation energy         =       0.04361575 Ry
     electrolyte free energy   =       0.01515579 Ry
     correction to one-el term =      -0.00000000 Ry

     iteration #  2     ecut=    80.00 Ry     beta= 0.20
     Davidson diagonalization with overlap

---- Real-time Memory Report at c_bands before calling an iterative solver
          1219 MiB given to the printing process from OS
             0 MiB allocation reported by mallinfo(arena+hblkhd)
        201171 MiB available memory on the node where the printing process lives
------------------
     ethr =  1.00E-05,  avg # of iterations = 12.3

     negative rho (up, down):  3.349E-03 0.000E+00

     total cpu time spent up to now is      847.8 secs

     total energy              =   -1022.61324063 Ry
     estimated scf accuracy    <       0.10825351 Ry

     total charge of GC-SCF    =       0.07167401 e
     the Fermi energy          =      -3.18069877 eV
                        (error :       0.27669877 eV)
     electrostatic embedding   =       0.00032178 Ry
     cavitation energy         =       0.04361575 Ry
     electrolyte free energy   =       0.01515579 Ry
     correction to one-el term =      -0.00000000 Ry

     iteration #  3     ecut=    80.00 Ry     beta= 0.20
     Davidson diagonalization with overlap

---- Real-time Memory Report at c_bands before calling an iterative solver
          1219 MiB given to the printing process from OS
             0 MiB allocation reported by mallinfo(arena+hblkhd)
        200764 MiB available memory on the node where the printing process lives
------------------
     ethr =  1.00E-05,  avg # of iterations = 11.2

     negative rho (up, down):  2.510E-03 0.000E+00

     add environment contribution to local potential

     total cpu time spent up to now is      918.1 secs

     total energy              =   -1022.40819974 Ry
     estimated scf accuracy    <       0.06070936 Ry

     total charge of GC-SCF    =       0.20895053 e
     the Fermi energy          =      -3.08438573 eV
                        (error :       0.18038573 eV)
     electrostatic embedding   =       0.00065226 Ry
     cavitation energy         =       0.04361575 Ry
     electrolyte free energy   =       0.01515579 Ry
     correction to one-el term =      -0.00000000 Ry

     iteration #  4     ecut=    80.00 Ry     beta= 0.20
     Davidson diagonalization with overlap

---- Real-time Memory Report at c_bands before calling an iterative solver
          1219 MiB given to the printing process from OS
             0 MiB allocation reported by mallinfo(arena+hblkhd)
        200568 MiB available memory on the node where the printing process lives
------------------
     ethr =  1.00E-05,  avg # of iterations = 34.2

     negative rho (up, down):  2.144E-03 0.000E+00

     add environment contribution to local potential

     total cpu time spent up to now is     1066.2 secs

     total energy              =   -1022.50136131 Ry
     estimated scf accuracy    <       0.01568888 Ry

     total charge of GC-SCF    =       0.18821441 e
     the Fermi energy          =      -2.65209546 eV
                        (error :       0.25190454 eV)
     electrostatic embedding   =      -0.03313354 Ry
     cavitation energy         =       0.04361575 Ry
     electrolyte free energy   =      -0.00201490 Ry
     correction to one-el term =      -1.38956791 Ry

     iteration #  5     ecut=    80.00 Ry     beta= 0.20
     Davidson diagonalization with overlap

---- Real-time Memory Report at c_bands before calling an iterative solver
          1219 MiB given to the printing process from OS
             0 MiB allocation reported by mallinfo(arena+hblkhd)
        200504 MiB available memory on the node where the printing process lives
------------------
     ethr =  7.70E-06,  avg # of iterations = 16.6

     negative rho (up, down):  1.848E-03 0.000E+00

     add environment contribution to local potential

     total cpu time spent up to now is     1160.5 secs

     total energy              =   -1022.50805652 Ry
     estimated scf accuracy    <       0.00806171 Ry

     total charge of GC-SCF    =       0.27781412 e
     the Fermi energy          =      -2.92375854 eV
                        (error :       0.01975854 eV)
     electrostatic embedding   =      -0.03387339 Ry
     cavitation energy         =       0.04361575 Ry
     electrolyte free energy   =      -0.00408748 Ry
     correction to one-el term =      -0.16568817 Ry

     iteration #  6     ecut=    80.00 Ry     beta= 0.20
     Davidson diagonalization with overlap

---- Real-time Memory Report at c_bands before calling an iterative solver
          1219 MiB given to the printing process from OS
             0 MiB allocation reported by mallinfo(arena+hblkhd)
        200580 MiB available memory on the node where the printing process lives
------------------
     ethr =  3.96E-06,  avg # of iterations = 18.1

     negative rho (up, down):  1.599E-03 0.000E+00

     add environment contribution to local potential

     total cpu time spent up to now is     1274.6 secs

     total energy              =   -1022.49260102 Ry
     estimated scf accuracy    <       0.00784451 Ry

     total charge of GC-SCF    =       0.35835781 e
     the Fermi energy          =      -2.81776416 eV
                        (error :       0.08623584 eV)
     electrostatic embedding   =      -0.04239867 Ry
     cavitation energy         =       0.04361575 Ry
     electrolyte free energy   =      -0.00263204 Ry
     correction to one-el term =       2.62090504 Ry

     iteration #  7     ecut=    80.00 Ry     beta= 0.20
     Davidson diagonalization with overlap

---- Real-time Memory Report at c_bands before calling an iterative solver
          1219 MiB given to the printing process from OS
             0 MiB allocation reported by mallinfo(arena+hblkhd)
        200548 MiB available memory on the node where the printing process lives
------------------
     ethr =  3.85E-06,  avg # of iterations = 19.9

     negative rho (up, down):  1.908E-03 0.000E+00

     add environment contribution to local potential

     total cpu time spent up to now is     1388.4 secs

     total energy              =   -1022.53884606 Ry
     estimated scf accuracy    <       0.00232340 Ry

     total charge of GC-SCF    =       0.51703190 e
     the Fermi energy          =      -2.58981756 eV
                        (error :       0.31418244 eV)
     electrostatic embedding   =      -0.04650869 Ry
     cavitation energy         =       0.04361575 Ry
     electrolyte free energy   =      -0.00119234 Ry
     correction to one-el term =       1.82657075 Ry

     iteration #  8     ecut=    80.00 Ry     beta= 0.20
     Davidson diagonalization with overlap

---- Real-time Memory Report at c_bands before calling an iterative solver
          1219 MiB given to the printing process from OS
             0 MiB allocation reported by mallinfo(arena+hblkhd)
        200312 MiB available memory on the node where the printing process lives
------------------
     ethr =  1.14E-06,  avg # of iterations = 18.5

     negative rho (up, down):  1.853E-03 0.000E+00

     add environment contribution to local potential

     total cpu time spent up to now is     1505.3 secs

     total energy              =   -1022.53337344 Ry
     estimated scf accuracy    <       0.00100483 Ry

     total charge of GC-SCF    =       0.54286866 e
     the Fermi energy          =      -2.63917312 eV
                        (error :       0.26482688 eV)
     electrostatic embedding   =      -0.05659902 Ry
     cavitation energy         =       0.04361575 Ry
     electrolyte free energy   =      -0.00153306 Ry
     correction to one-el term =      -0.88057009 Ry

     iteration #  9     ecut=    80.00 Ry     beta= 0.20
     Davidson diagonalization with overlap

---- Real-time Memory Report at c_bands before calling an iterative solver
          1219 MiB given to the printing process from OS
             0 MiB allocation reported by mallinfo(arena+hblkhd)
        200286 MiB available memory on the node where the printing process lives
------------------
     ethr =  4.94E-07,  avg # of iterations = 15.8

     negative rho (up, down):  1.483E-03 0.000E+00

     add environment contribution to local potential

     total cpu time spent up to now is     1595.0 secs

     total energy              =   -1022.53013548 Ry
     estimated scf accuracy    <       0.00072577 Ry

     total charge of GC-SCF    =       0.63663248 e
     the Fermi energy          =      -2.69829242 eV
                        (error :       0.20570758 eV)
     electrostatic embedding   =      -0.05529842 Ry
     cavitation energy         =       0.04361575 Ry
     electrolyte free energy   =      -0.00184984 Ry
     correction to one-el term =      -2.45613313 Ry

     iteration # 10     ecut=    80.00 Ry     beta= 0.20
     Davidson diagonalization with overlap

---- Real-time Memory Report at c_bands before calling an iterative solver
          1219 MiB given to the printing process from OS
             0 MiB allocation reported by mallinfo(arena+hblkhd)
        200349 MiB available memory on the node where the printing process lives
------------------
     ethr =  3.57E-07,  avg # of iterations = 17.6

     negative rho (up, down):  1.387E-03 0.000E+00

     add environment contribution to local potential

     total cpu time spent up to now is     1707.1 secs

     total energy              =   -1022.52960898 Ry
     estimated scf accuracy    <       0.00147259 Ry

     total charge of GC-SCF    =       0.72109936 e
     the Fermi energy          =      -2.78659590 eV
                        (error :       0.11740410 eV)
     electrostatic embedding   =      -0.05411872 Ry
     cavitation energy         =       0.04361575 Ry
     electrolyte free energy   =      -0.00254481 Ry
     correction to one-el term =      -7.14351377 Ry

     iteration # 11     ecut=    80.00 Ry     beta= 0.20
     Davidson diagonalization with overlap

---- Real-time Memory Report at c_bands before calling an iterative solver
          1219 MiB given to the printing process from OS
             0 MiB allocation reported by mallinfo(arena+hblkhd)
        200308 MiB available memory on the node where the printing process lives
------------------
     ethr =  3.57E-07,  avg # of iterations = 15.1

     negative rho (up, down):  1.262E-03 0.000E+00

     add environment contribution to local potential

     total cpu time spent up to now is     1805.6 secs

     total energy              =   -1022.53438145 Ry
     estimated scf accuracy    <       0.00013687 Ry

     total charge of GC-SCF    =       0.80108315 e
     the Fermi energy          =      -2.76275663 eV
                        (error :       0.14124337 eV)
     electrostatic embedding   =      -0.05817044 Ry
     cavitation energy         =       0.04361575 Ry
     electrolyte free energy   =      -0.00244685 Ry
     correction to one-el term =     -10.91670398 Ry

     iteration # 12     ecut=    80.00 Ry     beta= 0.20
     Davidson diagonalization with overlap

---- Real-time Memory Report at c_bands before calling an iterative solver
          1219 MiB given to the printing process from OS
             0 MiB allocation reported by mallinfo(arena+hblkhd)
        200183 MiB available memory on the node where the printing process lives
------------------
     ethr =  6.74E-08,  avg # of iterations = 42.2

     negative rho (up, down):  9.701E-04 0.000E+00

     add environment contribution to local potential

     total cpu time spent up to now is     1989.8 secs

     total energy              =   -1022.53085312 Ry
     estimated scf accuracy    <       0.00077321 Ry

     total charge of GC-SCF    =       0.85806776 e
     the Fermi energy          =      -2.84509323 eV
                        (error :       0.05890677 eV)
     electrostatic embedding   =      -0.06206734 Ry
     cavitation energy         =       0.04361575 Ry
     electrolyte free energy   =      -0.00322079 Ry
     correction to one-el term =     -14.44412188 Ry

     iteration # 13     ecut=    80.00 Ry     beta= 0.20
     Davidson diagonalization with overlap

---- Real-time Memory Report at c_bands before calling an iterative solver
          1219 MiB given to the printing process from OS
             0 MiB allocation reported by mallinfo(arena+hblkhd)
        199958 MiB available memory on the node where the printing process lives
------------------
     ethr =  6.74E-08,  avg # of iterations = 49.8

     negative rho (up, down):  9.166E-04 0.000E+00

     add environment contribution to local potential

     total cpu time spent up to now is     2191.3 secs

     total energy              =   -1022.53589994 Ry
     estimated scf accuracy    <       0.00077413 Ry

     total charge of GC-SCF    =       0.90736267 e
     the Fermi energy          =      -2.73841482 eV
                        (error :       0.16558518 eV)
     electrostatic embedding   =      -0.06998782 Ry
     cavitation energy         =       0.04361575 Ry
     electrolyte free energy   =      -0.00251981 Ry
     correction to one-el term =     -16.83828618 Ry

     iteration # 14     ecut=    80.00 Ry     beta= 0.20
     Davidson diagonalization with overlap

---- Real-time Memory Report at c_bands before calling an iterative solver
          1219 MiB given to the printing process from OS
             0 MiB allocation reported by mallinfo(arena+hblkhd)
        200019 MiB available memory on the node where the printing process lives
------------------
     ethr =  6.74E-08,  avg # of iterations = 26.8

     negative rho (up, down):  8.490E-04 0.000E+00

     add environment contribution to local potential

     total cpu time spent up to now is     2324.8 secs

     total energy              =   -1022.53752517 Ry
     estimated scf accuracy    <       0.00002693 Ry

     total charge of GC-SCF    =       0.99198647 e
     the Fermi energy          =      -2.80367525 eV
                        (error :       0.10032475 eV)
     electrostatic embedding   =      -0.07374567 Ry
     cavitation energy         =       0.04361575 Ry
     electrolyte free energy   =      -0.00306764 Ry
     correction to one-el term =     -18.60817732 Ry

     iteration # 15     ecut=    80.00 Ry     beta= 0.20
     Davidson diagonalization with overlap

---- Real-time Memory Report at c_bands before calling an iterative solver
          1219 MiB given to the printing process from OS
             0 MiB allocation reported by mallinfo(arena+hblkhd)
        199981 MiB available memory on the node where the printing process lives
------------------
     ethr =  1.33E-08,  avg # of iterations = 47.6

     negative rho (up, down):  8.008E-04 0.000E+00

     add environment contribution to local potential

     total cpu time spent up to now is     2522.5 secs

     total energy              =   -1022.53879633 Ry
     estimated scf accuracy    <       0.00012076 Ry

     total charge of GC-SCF    =       1.04180302 e
     the Fermi energy          =      -2.83996574 eV
                        (error :       0.06403426 eV)
     electrostatic embedding   =      -0.08287352 Ry
     cavitation energy         =       0.04361575 Ry
     electrolyte free energy   =      -0.00351855 Ry
     correction to one-el term =     -21.83544181 Ry

     iteration # 16     ecut=    80.00 Ry     beta= 0.20
     Davidson diagonalization with overlap

---- Real-time Memory Report at c_bands before calling an iterative solver
          1219 MiB given to the printing process from OS
             0 MiB allocation reported by mallinfo(arena+hblkhd)
        199955 MiB available memory on the node where the printing process lives
------------------
     ethr =  1.33E-08,  avg # of iterations = 15.3

     negative rho (up, down):  7.657E-04 0.000E+00

     add environment contribution to local potential

     total cpu time spent up to now is     2619.3 secs

     total energy              =   -1022.53924758 Ry
     estimated scf accuracy    <       0.00005465 Ry

     total charge of GC-SCF    =       1.08039224 e
     the Fermi energy          =      -2.84149737 eV
                        (error :       0.06250263 eV)
     electrostatic embedding   =      -0.08947593 Ry
     cavitation energy         =       0.04361575 Ry
     electrolyte free energy   =      -0.00363071 Ry
     correction to one-el term =     -23.68293301 Ry

     iteration # 17     ecut=    80.00 Ry     beta= 0.20
     Davidson diagonalization with overlap

---- Real-time Memory Report at c_bands before calling an iterative solver
          1219 MiB given to the printing process from OS
             0 MiB allocation reported by mallinfo(arena+hblkhd)
        200088 MiB available memory on the node where the printing process lives
------------------
     ethr =  1.33E-08,  avg # of iterations = 15.8

     negative rho (up, down):  7.478E-04 0.000E+00

     add environment contribution to local potential

     total cpu time spent up to now is     2728.3 secs

     total energy              =   -1022.53951961 Ry
     estimated scf accuracy    <       0.00001173 Ry

     total charge of GC-SCF    =       1.13940805 e
     the Fermi energy          =      -2.83157724 eV
                        (error :       0.07242276 eV)
     electrostatic embedding   =      -0.09521641 Ry
     cavitation energy         =       0.04361575 Ry
     electrolyte free energy   =      -0.00363529 Ry
     correction to one-el term =     -25.14818499 Ry

     iteration # 18     ecut=    80.00 Ry     beta= 0.20
     Davidson diagonalization with overlap

---- Real-time Memory Report at c_bands before calling an iterative solver
          1219 MiB given to the printing process from OS
             0 MiB allocation reported by mallinfo(arena+hblkhd)
        200163 MiB available memory on the node where the printing process lives
------------------
     ethr =  5.78E-09,  avg # of iterations = 43.0

     negative rho (up, down):  7.359E-04 0.000E+00

     add environment contribution to local potential

     total cpu time spent up to now is     2908.1 secs

     total energy              =   -1022.53970318 Ry
     estimated scf accuracy    <       0.00002313 Ry

     total charge of GC-SCF    =       1.24423647 e
     the Fermi energy          =      -2.85195877 eV
                        (error :       0.05204123 eV)
     electrostatic embedding   =      -0.10366923 Ry
     cavitation energy         =       0.04361575 Ry
     electrolyte free energy   =      -0.00392424 Ry
     correction to one-el term =     -27.20168749 Ry

     iteration # 19     ecut=    80.00 Ry     beta= 0.20
     Davidson diagonalization with overlap

---- Real-time Memory Report at c_bands before calling an iterative solver
          1219 MiB given to the printing process from OS
             0 MiB allocation reported by mallinfo(arena+hblkhd)
        199965 MiB available memory on the node where the printing process lives
------------------
     ethr =  5.78E-09,  avg # of iterations = 36.7

     negative rho (up, down):  7.449E-04 0.000E+00

     add environment contribution to local potential

     total cpu time spent up to now is     3076.4 secs

     total energy              =   -1022.54115172 Ry
     estimated scf accuracy    <       0.00000539 Ry

     total charge of GC-SCF    =       1.38625899 e
     the Fermi energy          =      -2.86017176 eV
                        (error :       0.04382824 eV)
     electrostatic embedding   =      -0.12136334 Ry
     cavitation energy         =       0.04361575 Ry
     electrolyte free energy   =      -0.00423470 Ry
     correction to one-el term =     -30.95845674 Ry

     iteration # 20     ecut=    80.00 Ry     beta= 0.20
     Davidson diagonalization with overlap

---- Real-time Memory Report at c_bands before calling an iterative solver
          1219 MiB given to the printing process from OS
             0 MiB allocation reported by mallinfo(arena+hblkhd)
        199906 MiB available memory on the node where the printing process lives
------------------
     ethr =  2.66E-09,  avg # of iterations = 41.9

     negative rho (up, down):  7.551E-04 0.000E+00

     add environment contribution to local potential

     total cpu time spent up to now is     3274.7 secs

     total energy              =   -1022.54113836 Ry
     estimated scf accuracy    <       0.00000876 Ry

     total charge of GC-SCF    =       1.44219185 e
     the Fermi energy          =      -2.87980245 eV
                        (error :       0.02419755 eV)
     electrostatic embedding   =      -0.14863924 Ry
     cavitation energy         =       0.04361575 Ry
     electrolyte free energy   =      -0.00475243 Ry
     correction to one-el term =     -35.92449153 Ry

     iteration # 21     ecut=    80.00 Ry     beta= 0.20
     Davidson diagonalization with overlap

---- Real-time Memory Report at c_bands before calling an iterative solver
          1219 MiB given to the printing process from OS
             0 MiB allocation reported by mallinfo(arena+hblkhd)
        199805 MiB available memory on the node where the printing process lives
------------------
     c_bands:  1 eigenvalues not converged
     ethr =  2.66E-09,  avg # of iterations = 45.6

     negative rho (up, down):  7.519E-04 0.000E+00

     add environment contribution to local potential

     total cpu time spent up to now is     3468.2 secs

     total energy              =   -1022.54114373 Ry
     estimated scf accuracy    <       0.00000058 Ry

     total charge of GC-SCF    =       1.46156969 e
     the Fermi energy          =      -2.89397180 eV
                        (error :       0.01002820 eV)
     electrostatic embedding   =      -0.16021305 Ry
     cavitation energy         =       0.04361575 Ry
     electrolyte free energy   =      -0.00501773 Ry
     correction to one-el term =     -37.82103632 Ry

     iteration # 22     ecut=    80.00 Ry     beta= 0.20
     Davidson diagonalization with overlap

---- Real-time Memory Report at c_bands before calling an iterative solver
          1219 MiB given to the printing process from OS
             0 MiB allocation reported by mallinfo(arena+hblkhd)
        199936 MiB available memory on the node where the printing process lives
------------------
     c_bands:  1 eigenvalues not converged
     c_bands:  1 eigenvalues not converged
     ethr =  2.85E-10,  avg # of iterations = 63.4

     negative rho (up, down):  7.456E-04 0.000E+00

     add environment contribution to local potential

     total cpu time spent up to now is     3705.0 secs

     total energy              =   -1022.54115649 Ry
     estimated scf accuracy    <       0.00000218 Ry

     total charge of GC-SCF    =       1.47512313 e
     the Fermi energy          =      -2.90076875 eV
                        (error :       0.00323125 eV)
     electrostatic embedding   =      -0.16437851 Ry
     cavitation energy         =       0.04361575 Ry
     electrolyte free energy   =      -0.00513029 Ry
     correction to one-el term =     -38.50113821 Ry

     iteration # 23     ecut=    80.00 Ry     beta= 0.20
     Davidson diagonalization with overlap

---- Real-time Memory Report at c_bands before calling an iterative solver
          1219 MiB given to the printing process from OS
             0 MiB allocation reported by mallinfo(arena+hblkhd)
        199923 MiB available memory on the node where the printing process lives
------------------
     ethr =  2.85E-10,  avg # of iterations = 22.2

     negative rho (up, down):  7.417E-04 0.000E+00

     add environment contribution to local potential

     total cpu time spent up to now is     3836.7 secs

     total energy              =   -1022.54116685 Ry
     estimated scf accuracy    <       0.00000012 Ry

     total charge of GC-SCF    =       1.48261863 e
     the Fermi energy          =      -2.90096456 eV
                        (error :       0.00303544 eV)
     electrostatic embedding   =      -0.16753237 Ry
     cavitation energy         =       0.04361575 Ry
     electrolyte free energy   =      -0.00517511 Ry
     correction to one-el term =     -39.01077548 Ry

     iteration # 24     ecut=    80.00 Ry     beta= 0.20
     Davidson diagonalization with overlap

---- Real-time Memory Report at c_bands before calling an iterative solver
          1219 MiB given to the printing process from OS
             0 MiB allocation reported by mallinfo(arena+hblkhd)
        200196 MiB available memory on the node where the printing process lives
------------------
     c_bands:  1 eigenvalues not converged
     ethr =  6.15E-11,  avg # of iterations = 44.4

     negative rho (up, down):  7.364E-04 0.000E+00

     add environment contribution to local potential

     total cpu time spent up to now is     4029.3 secs

     total energy              =   -1022.54116740 Ry
     estimated scf accuracy    <       0.00000008 Ry

     total charge of GC-SCF    =       1.48738087 e
     the Fermi energy          =      -2.90238630 eV
                        (error :       0.00161370 eV)
     electrostatic embedding   =      -0.16921626 Ry
     cavitation energy         =       0.04361575 Ry
     electrolyte free energy   =      -0.00520881 Ry
     correction to one-el term =     -39.27877003 Ry

     iteration # 25     ecut=    80.00 Ry     beta= 0.20
     Davidson diagonalization with overlap

---- Real-time Memory Report at c_bands before calling an iterative solver
          1219 MiB given to the printing process from OS
             0 MiB allocation reported by mallinfo(arena+hblkhd)
        199981 MiB available memory on the node where the printing process lives
------------------
     ethr =  3.89E-11,  avg # of iterations = 27.7

     negative rho (up, down):  7.147E-04 0.000E+00

     total cpu time spent up to now is     4156.8 secs

     End of self-consistent calculation

          k = 0.0000 0.0000 0.0000 (425513 PWs)   bands (ev):

   -50.6094 -50.6094 -50.6093 -50.6093 -50.4649 -50.4649 -50.4648 -50.4648
   -50.3934 -50.3933 -50.3933 -50.3932 -49.6440 -49.6440 -49.6439 -49.6438
   -49.6053 -49.6052 -49.6051 -49.6050 -49.5603 -49.5602 -49.5600 -49.5598
   -49.4438 -49.4415 -49.4387 -49.4371 -49.4307 -49.4294 -49.4284 -49.4282
   -49.4176 -49.4165 -49.4159 -49.4154 -49.4153 -49.4141 -49.4139 -49.4124
   -49.4122 -49.4112 -49.4109 -49.4109 -49.4092 -49.4090 -49.4078 -49.4064
   -49.4064 -49.4064 -49.4057 -49.4049 -49.4047 -49.4046 -49.4044 -49.4025
   -49.3992 -49.3990 -49.3988 -49.3984 -49.3680 -49.3678 -49.3671 -49.3669
   -49.2953 -49.2951 -49.2950 -49.2949  -6.3721  -6.0492  -5.4918  -5.2553
    -5.2542  -5.1229  -5.1119  -4.9323  -4.9212  -4.7988  -4.7941  -4.7320
    -4.5523  -4.5502  -4.3619  -4.3494  -4.2987  -4.2322  -4.2236  -4.1537
    -3.8887  -3.6874  -3.6688  -3.5850  -3.5737  -3.5107  -3.4940  -3.4514
    -3.4156  -3.1661  -3.1377  -2.9248  -2.9191  -2.8744  -2.7527  -2.7166
    -2.6333  -2.5952  -2.5637  -2.5422  -2.5357  -2.2731  -2.2123  -2.2089
    -2.1260  -2.0878  -1.9819  -1.9688  -1.8869  -1.8683  -1.8409  -1.8353
    -1.7956  -1.7467  -1.7073  -1.6310  -1.6270  -1.6220  -1.4871  -1.1277
    -1.1226  -1.1120  -1.0180  -0.9948  -0.9739  -0.9269  -0.8797  -0.8735
    -0.6242  -0.5449  -0.3725  -0.3155  -0.2103  -0.1355  -0.0990  -0.0621
     0.0291   0.0620   0.0944   0.1249   0.1601   0.1781   0.2860   0.3854
     0.4018

     occupation numbers 
     1.0000   1.0000   1.0000   1.0000   1.0000   1.0000   1.0000   1.0000
     1.0000   1.0000   1.0000   1.0000   1.0000   1.0000   1.0000   1.0000
     1.0000   1.0000   1.0000   1.0000   1.0000   1.0000   1.0000   1.0000
     1.0000   1.0000   1.0000   1.0000   1.0000   1.0000   1.0000   1.0000
     1.0000   1.0000   1.0000   1.0000   1.0000   1.0000   1.0000   1.0000
     1.0000   1.0000   1.0000   1.0000   1.0000   1.0000   1.0000   1.0000
     1.0000   1.0000   1.0000   1.0000   1.0000   1.0000   1.0000   1.0000
     1.0000   1.0000   1.0000   1.0000   1.0000   1.0000   1.0000   1.0000
     1.0000   1.0000   1.0000   1.0000   1.0000   1.0000   1.0000   1.0000
     1.0000   1.0000   1.0000   1.0000   1.0000   1.0000   1.0000   1.0000
     1.0000   1.0000   1.0000   1.0000   1.0000   1.0000   1.0000   1.0000
     1.0000   1.0000   1.0000   1.0000   1.0000   1.0000   1.0000   1.0000
     1.0000   1.0473   1.0667   0.5150   0.4836   0.2688   0.0201   0.0070
     0.0004   0.0001   0.0000   0.0000   0.0000   0.0000   0.0000   0.0000
     0.0000   0.0000   0.0000   0.0000   0.0000   0.0000   0.0000   0.0000
     0.0000   0.0000   0.0000   0.0000   0.0000   0.0000   0.0000   0.0000
     0.0000   0.0000   0.0000   0.0000   0.0000   0.0000   0.0000   0.0000
     0.0000   0.0000   0.0000   0.0000   0.0000   0.0000   0.0000   0.0000
     0.0000   0.0000   0.0000   0.0000   0.0000   0.0000   0.0000   0.0000
     0.0000

          k = 0.0000 0.1386 0.0000 (425461 PWs)   bands (ev):

   -50.6094 -50.6094 -50.6093 -50.6093 -50.4649 -50.4649 -50.4648 -50.4648
   -50.3934 -50.3933 -50.3933 -50.3932 -49.6440 -49.6440 -49.6439 -49.6438
   -49.6053 -49.6052 -49.6051 -49.6050 -49.5603 -49.5602 -49.5600 -49.5598
   -49.4438 -49.4415 -49.4387 -49.4371 -49.4308 -49.4294 -49.4284 -49.4282
   -49.4177 -49.4164 -49.4159 -49.4155 -49.4152 -49.4140 -49.4139 -49.4124
   -49.4123 -49.4112 -49.4110 -49.4108 -49.4093 -49.4090 -49.4078 -49.4069
   -49.4064 -49.4058 -49.4057 -49.4049 -49.4047 -49.4046 -49.4044 -49.4026
   -49.3992 -49.3990 -49.3988 -49.3984 -49.3680 -49.3678 -49.3671 -49.3669
   -49.2953 -49.2951 -49.2950 -49.2949  -6.3493  -6.0265  -5.5511  -5.4695
    -5.2211  -5.1756  -5.0139  -4.9143  -4.8549  -4.7686  -4.7257  -4.6903
    -4.6323  -4.5857  -4.4532  -4.2950  -4.2817  -4.1324  -4.0207  -3.9537
    -3.9177  -3.8822  -3.8355  -3.8130  -3.5456  -3.4914  -3.4186  -3.3084
    -3.2603  -3.1372  -3.1324  -3.0355  -2.9071  -2.8159  -2.7598  -2.7427
    -2.6808  -2.6401  -2.5512  -2.5358  -2.4376  -2.3794  -2.3530  -2.3312
    -2.2741  -2.2193  -2.0820  -1.9904  -1.9792  -1.9687  -1.9154  -1.8501
    -1.8124  -1.7495  -1.5304  -1.5288  -1.4404  -1.3554  -1.2681  -1.2257
    -1.1625  -1.1476  -1.0208  -1.0027  -0.9794  -0.8495  -0.7997  -0.7913
    -0.6062  -0.3860  -0.3446  -0.2861  -0.1836  -0.1563  -0.1077  -0.0684
     0.0041   0.0494   0.0644   0.1643   0.1679   0.1851   0.2367   0.2421
     0.3468

     occupation numbers 
     1.0000   1.0000   1.0000   1.0000   1.0000   1.0000   1.0000   1.0000
     1.0000   1.0000   1.0000   1.0000   1.0000   1.0000   1.0000   1.0000
     1.0000   1.0000   1.0000   1.0000   1.0000   1.0000   1.0000   1.0000
     1.0000   1.0000   1.0000   1.0000   1.0000   1.0000   1.0000   1.0000
     1.0000   1.0000   1.0000   1.0000   1.0000   1.0000   1.0000   1.0000
     1.0000   1.0000   1.0000   1.0000   1.0000   1.0000   1.0000   1.0000
     1.0000   1.0000   1.0000   1.0000   1.0000   1.0000   1.0000   1.0000
     1.0000   1.0000   1.0000   1.0000   1.0000   1.0000   1.0000   1.0000
     1.0000   1.0000   1.0000   1.0000   1.0000   1.0000   1.0000   1.0000
     1.0000   1.0000   1.0000   1.0000   1.0000   1.0000   1.0000   1.0000
     1.0000   1.0000   1.0000   1.0000   1.0000   1.0000   1.0000   1.0000
     1.0000   1.0000   1.0000   1.0000   1.0000   1.0000   1.0000   1.0016
     1.0067   1.0670   1.0700   1.0183   0.4206   0.0931   0.0243   0.0152
     0.0021   0.0005   0.0000   0.0000   0.0000   0.0000   0.0000   0.0000
     0.0000   0.0000   0.0000   0.0000   0.0000   0.0000   0.0000   0.0000
     0.0000   0.0000   0.0000   0.0000   0.0000   0.0000   0.0000   0.0000
     0.0000   0.0000   0.0000   0.0000   0.0000   0.0000   0.0000   0.0000
     0.0000   0.0000   0.0000   0.0000   0.0000   0.0000   0.0000   0.0000
     0.0000   0.0000   0.0000   0.0000   0.0000   0.0000   0.0000   0.0000
     0.0000

          k = 0.0000 0.2772 0.0000 (425344 PWs)   bands (ev):

   -50.6094 -50.6094 -50.6093 -50.6093 -50.4649 -50.4649 -50.4648 -50.4648
   -50.3934 -50.3933 -50.3933 -50.3932 -49.6440 -49.6440 -49.6439 -49.6438
   -49.6053 -49.6052 -49.6051 -49.6050 -49.5603 -49.5602 -49.5600 -49.5598
   -49.4438 -49.4415 -49.4387 -49.4371 -49.4310 -49.4294 -49.4284 -49.4282
   -49.4178 -49.4161 -49.4159 -49.4156 -49.4152 -49.4139 -49.4139 -49.4125
   -49.4124 -49.4112 -49.4110 -49.4108 -49.4093 -49.4090 -49.4078 -49.4072
   -49.4064 -49.4057 -49.4052 -49.4049 -49.4047 -49.4046 -49.4044 -49.4029
   -49.3992 -49.3990 -49.3988 -49.3984 -49.3680 -49.3678 -49.3671 -49.3669
   -49.2953 -49.2951 -49.2950 -49.2949  -6.2812  -5.9585  -5.8010  -5.4835
    -5.3888  -5.1871  -4.9475  -4.9138  -4.8751  -4.8475  -4.6312  -4.6261
    -4.5380  -4.5209  -4.2979  -4.2029  -4.1489  -4.1398  -4.0646  -3.9962
    -3.9749  -3.8092  -3.7715  -3.6575  -3.6438  -3.5416  -3.3276  -3.2691
    -3.2310  -3.1965  -3.1036  -3.0586  -2.9616  -2.9320  -2.8099  -2.7934
    -2.7860  -2.6699  -2.6303  -2.5797  -2.4752  -2.4708  -2.4479  -2.4357
    -2.3993  -2.2703  -2.1935  -2.0755  -2.0299  -1.9757  -1.9287  -1.8602
    -1.7743  -1.6271  -1.5520  -1.3677  -1.3415  -1.3304  -1.2069  -1.1932
    -1.1581  -1.0323  -0.9857  -0.9396  -0.8513  -0.7527  -0.5895  -0.5281
    -0.5268  -0.3884  -0.3590  -0.2597  -0.2576  -0.1850  -0.1515  -0.0715
    -0.0119   0.0104   0.0199   0.0235   0.1825   0.2069   0.2739   0.3356
     0.3427

     occupation numbers 
     1.0000   1.0000   1.0000   1.0000   1.0000   1.0000   1.0000   1.0000
     1.0000   1.0000   1.0000   1.0000   1.0000   1.0000   1.0000   1.0000
     1.0000   1.0000   1.0000   1.0000   1.0000   1.0000   1.0000   1.0000
     1.0000   1.0000   1.0000   1.0000   1.0000   1.0000   1.0000   1.0000
     1.0000   1.0000   1.0000   1.0000   1.0000   1.0000   1.0000   1.0000
     1.0000   1.0000   1.0000   1.0000   1.0000   1.0000   1.0000   1.0000
     1.0000   1.0000   1.0000   1.0000   1.0000   1.0000   1.0000   1.0000
     1.0000   1.0000   1.0000   1.0000   1.0000   1.0000   1.0000   1.0000
     1.0000   1.0000   1.0000   1.0000   1.0000   1.0000   1.0000   1.0000
     1.0000   1.0000   1.0000   1.0000   1.0000   1.0000   1.0000   1.0000
     1.0000   1.0000   1.0000   1.0000   1.0000   1.0000   1.0000   1.0000
     1.0000   1.0000   1.0000   1.0000   1.0000   1.0000   1.0009   1.0053
     1.0140   1.0287   1.0825   1.0610   0.7167   0.5542   0.0819   0.0566
     0.0474   0.0014   0.0003   0.0000   0.0000   0.0000   0.0000   0.0000
     0.0000   0.0000   0.0000   0.0000   0.0000   0.0000   0.0000   0.0000
     0.0000   0.0000   0.0000   0.0000   0.0000   0.0000   0.0000   0.0000
     0.0000   0.0000   0.0000   0.0000   0.0000   0.0000   0.0000   0.0000
     0.0000   0.0000   0.0000   0.0000   0.0000   0.0000   0.0000   0.0000
     0.0000   0.0000   0.0000   0.0000   0.0000   0.0000   0.0000   0.0000
     0.0000

          k = 0.0000 0.4158 0.0000 (425441 PWs)   bands (ev):

   -50.6094 -50.6094 -50.6093 -50.6093 -50.4649 -50.4649 -50.4648 -50.4648
   -50.3934 -50.3933 -50.3933 -50.3932 -49.6440 -49.6440 -49.6439 -49.6438
   -49.6053 -49.6052 -49.6051 -49.6050 -49.5603 -49.5602 -49.5600 -49.5598
   -49.4437 -49.4415 -49.4387 -49.4371 -49.4311 -49.4294 -49.4284 -49.4282
   -49.4178 -49.4159 -49.4158 -49.4155 -49.4153 -49.4139 -49.4138 -49.4127
   -49.4125 -49.4111 -49.4109 -49.4108 -49.4092 -49.4090 -49.4078 -49.4074
   -49.4064 -49.4057 -49.4050 -49.4048 -49.4046 -49.4046 -49.4044 -49.4032
   -49.3992 -49.3990 -49.3988 -49.3984 -49.3680 -49.3678 -49.3671 -49.3669
   -49.2953 -49.2951 -49.2950 -49.2949  -6.1682  -6.0063  -5.8448  -5.6808
    -5.2818  -5.1525  -5.1160  -5.0709  -4.8311  -4.7515  -4.6629  -4.5162
    -4.4292  -4.3587  -4.3428  -4.2569  -4.1925  -4.0929  -4.0768  -3.7848
    -3.7838  -3.6691  -3.6585  -3.6189  -3.5778  -3.4689  -3.4680  -3.3960
    -3.3275  -3.3057  -3.3027  -3.2297  -3.0285  -2.9771  -2.8405  -2.8262
    -2.7259  -2.6815  -2.6162  -2.6077  -2.5798  -2.5495  -2.5303  -2.3888
    -2.3759  -2.3095  -2.2435  -2.1336  -2.0473  -2.0249  -1.9346  -1.6771
    -1.6514  -1.5940  -1.4890  -1.4884  -1.4172  -1.2647  -1.2020  -1.1389
    -1.0163  -0.9526  -0.8705  -0.8579  -0.8501  -0.8244  -0.6476  -0.6208
    -0.4958  -0.4548  -0.3723  -0.3038  -0.1980  -0.1371  -0.0457   0.0231
     0.1054   0.1273   0.1380   0.1383   0.1677   0.1802   0.2855   0.3210
     0.3326

     occupation numbers 
     1.0000   1.0000   1.0000   1.0000   1.0000   1.0000   1.0000   1.0000
     1.0000   1.0000   1.0000   1.0000   1.0000   1.0000   1.0000   1.0000
     1.0000   1.0000   1.0000   1.0000   1.0000   1.0000   1.0000   1.0000
     1.0000   1.0000   1.0000   1.0000   1.0000   1.0000   1.0000   1.0000
     1.0000   1.0000   1.0000   1.0000   1.0000   1.0000   1.0000   1.0000
     1.0000   1.0000   1.0000   1.0000   1.0000   1.0000   1.0000   1.0000
     1.0000   1.0000   1.0000   1.0000   1.0000   1.0000   1.0000   1.0000
     1.0000   1.0000   1.0000   1.0000   1.0000   1.0000   1.0000   1.0000
     1.0000   1.0000   1.0000   1.0000   1.0000   1.0000   1.0000   1.0000
     1.0000   1.0000   1.0000   1.0000   1.0000   1.0000   1.0000   1.0000
     1.0000   1.0000   1.0000   1.0000   1.0000   1.0000   1.0000   1.0000
     1.0000   1.0000   1.0000   1.0000   1.0000   1.0000   1.0000   1.0001
     1.0009   1.0018   1.0020   1.0144   1.0002   0.7972   0.1515   0.1148
     0.0093   0.0022   0.0002   0.0001   0.0000   0.0000   0.0000   0.0000
     0.0000   0.0000   0.0000   0.0000   0.0000   0.0000   0.0000   0.0000
     0.0000   0.0000   0.0000   0.0000   0.0000   0.0000   0.0000   0.0000
     0.0000   0.0000   0.0000   0.0000   0.0000   0.0000   0.0000   0.0000
     0.0000   0.0000   0.0000   0.0000   0.0000   0.0000   0.0000   0.0000
     0.0000   0.0000   0.0000   0.0000   0.0000   0.0000   0.0000   0.0000
     0.0000

          k = 0.1429 0.0346 0.0000 (425499 PWs)   bands (ev):

   -50.6094 -50.6094 -50.6093 -50.6093 -50.4649 -50.4649 -50.4648 -50.4648
   -50.3934 -50.3933 -50.3933 -50.3932 -49.6440 -49.6440 -49.6439 -49.6438
   -49.6053 -49.6052 -49.6051 -49.6050 -49.5603 -49.5602 -49.5601 -49.5598
   -49.4437 -49.4416 -49.4387 -49.4372 -49.4306 -49.4293 -49.4286 -49.4282
   -49.4176 -49.4165 -49.4162 -49.4154 -49.4151 -49.4141 -49.4139 -49.4124
   -49.4122 -49.4114 -49.4112 -49.4106 -49.4094 -49.4087 -49.4079 -49.4066
   -49.4065 -49.4064 -49.4054 -49.4049 -49.4047 -49.4046 -49.4044 -49.4026
   -49.3992 -49.3989 -49.3988 -49.3984 -49.3680 -49.3677 -49.3671 -49.3669
   -49.2953 -49.2951 -49.2950 -49.2949  -6.3465  -6.0237  -5.4663  -5.4497
    -5.3088  -5.1498  -5.1279  -4.9806  -4.8217  -4.8080  -4.7348  -4.7068
    -4.5840  -4.4732  -4.4082  -4.4037  -4.2511  -4.2454  -3.9554  -3.9051
    -3.8836  -3.8650  -3.8602  -3.7543  -3.6282  -3.5516  -3.4776  -3.3373
    -3.1689  -3.0987  -3.0668  -2.9741  -2.9495  -2.8682  -2.7313  -2.7307
    -2.5701  -2.5546  -2.5460  -2.4586  -2.4030  -2.3409  -2.2768  -2.2087
    -2.1987  -2.1132  -2.1014  -2.0328  -2.0029  -1.9226  -1.9005  -1.8662
    -1.8363  -1.8024  -1.6823  -1.6325  -1.5433  -1.5110  -1.3971  -1.3637
    -1.2810  -1.2226  -1.1214  -1.0134  -0.9330  -0.9162  -0.8754  -0.8563
    -0.6250  -0.4694  -0.3903  -0.3588  -0.3335  -0.1346  -0.1119  -0.0507
     0.0011   0.0375   0.1363   0.1416   0.1822   0.2271   0.3549   0.4122
     0.4573

     occupation numbers 
     1.0000   1.0000   1.0000   1.0000   1.0000   1.0000   1.0000   1.0000
     1.0000   1.0000   1.0000   1.0000   1.0000   1.0000   1.0000   1.0000
     1.0000   1.0000   1.0000   1.0000   1.0000   1.0000   1.0000   1.0000
     1.0000   1.0000   1.0000   1.0000   1.0000   1.0000   1.0000   1.0000
     1.0000   1.0000   1.0000   1.0000   1.0000   1.0000   1.0000   1.0000
     1.0000   1.0000   1.0000   1.0000   1.0000   1.0000   1.0000   1.0000
     1.0000   1.0000   1.0000   1.0000   1.0000   1.0000   1.0000   1.0000
     1.0000   1.0000   1.0000   1.0000   1.0000   1.0000   1.0000   1.0000
     1.0000   1.0000   1.0000   1.0000   1.0000   1.0000   1.0000   1.0000
     1.0000   1.0000   1.0000   1.0000   1.0000   1.0000   1.0000   1.0000
     1.0000   1.0000   1.0000   1.0000   1.0000   1.0000   1.0000   1.0000
     1.0000   1.0000   1.0000   1.0000   1.0000   1.0000   1.0000   1.0006
     1.0454   1.0832   1.0704   0.7821   0.6511   0.2441   0.0109   0.0107
     0.0000   0.0000   0.0000   0.0000   0.0000   0.0000   0.0000   0.0000
     0.0000   0.0000   0.0000   0.0000   0.0000   0.0000   0.0000   0.0000
     0.0000   0.0000   0.0000   0.0000   0.0000   0.0000   0.0000   0.0000
     0.0000   0.0000   0.0000   0.0000   0.0000   0.0000   0.0000   0.0000
     0.0000   0.0000   0.0000   0.0000   0.0000   0.0000   0.0000   0.0000
     0.0000   0.0000   0.0000   0.0000   0.0000   0.0000   0.0000   0.0000
     0.0000

          k = 0.1429 0.1732 0.0000 (425402 PWs)   bands (ev):

   -50.6094 -50.6094 -50.6093 -50.6093 -50.4649 -50.4649 -50.4648 -50.4648
   -50.3934 -50.3933 -50.3933 -50.3932 -49.6440 -49.6440 -49.6439 -49.6438
   -49.6053 -49.6052 -49.6051 -49.6050 -49.5603 -49.5602 -49.5601 -49.5598
   -49.4437 -49.4417 -49.4386 -49.4372 -49.4307 -49.4293 -49.4286 -49.4282
   -49.4177 -49.4163 -49.4162 -49.4153 -49.4150 -49.4140 -49.4139 -49.4125
   -49.4123 -49.4114 -49.4112 -49.4106 -49.4094 -49.4086 -49.4079 -49.4070
   -49.4066 -49.4058 -49.4053 -49.4049 -49.4047 -49.4046 -49.4044 -49.4028
   -49.3992 -49.3989 -49.3988 -49.3984 -49.3680 -49.3677 -49.3671 -49.3669
   -49.2953 -49.2951 -49.2950 -49.2949  -6.3124  -5.9895  -5.5936  -5.4958
    -5.4339  -5.2623  -5.1739  -4.7995  -4.7255  -4.6359  -4.6263  -4.6166
    -4.5374  -4.4704  -4.4532  -4.2952  -4.2289  -4.2044  -4.1210  -3.9459
    -3.9043  -3.9020  -3.8813  -3.7937  -3.7061  -3.6298  -3.5301  -3.3167
    -3.1520  -3.1045  -3.0715  -2.9418  -2.8637  -2.7649  -2.7507  -2.7127
    -2.6759  -2.5564  -2.5502  -2.5329  -2.4256  -2.3985  -2.3920  -2.3665
    -2.2097  -2.1743  -2.1315  -2.0449  -2.0174  -2.0171  -1.8592  -1.8283
    -1.8109  -1.7578  -1.6732  -1.6050  -1.4948  -1.2782  -1.2696  -1.2552
    -1.1290  -1.0981  -1.0861  -0.9645  -0.9578  -0.8836  -0.8543  -0.8072
    -0.7652  -0.5036  -0.3570  -0.2716  -0.2304  -0.2261  -0.0693  -0.0263
    -0.0131   0.0445   0.0904   0.1298   0.1811   0.2467   0.2486   0.2818
     0.3445

     occupation numbers 
     1.0000   1.0000   1.0000   1.0000   1.0000   1.0000   1.0000   1.0000
     1.0000   1.0000   1.0000   1.0000   1.0000   1.0000   1.0000   1.0000
     1.0000   1.0000   1.0000   1.0000   1.0000   1.0000   1.0000   1.0000
     1.0000   1.0000   1.0000   1.0000   1.0000   1.0000   1.0000   1.0000
     1.0000   1.0000   1.0000   1.0000   1.0000   1.0000   1.0000   1.0000
     1.0000   1.0000   1.0000   1.0000   1.0000   1.0000   1.0000   1.0000
     1.0000   1.0000   1.0000   1.0000   1.0000   1.0000   1.0000   1.0000
     1.0000   1.0000   1.0000   1.0000   1.0000   1.0000   1.0000   1.0000
     1.0000   1.0000   1.0000   1.0000   1.0000   1.0000   1.0000   1.0000
     1.0000   1.0000   1.0000   1.0000   1.0000   1.0000   1.0000   1.0000
     1.0000   1.0000   1.0000   1.0000   1.0000   1.0000   1.0000   1.0000
     1.0000   1.0000   1.0000   1.0000   1.0000   1.0000   1.0000   1.0012
     1.0570   1.0823   1.0745   0.6084   0.2268   0.0279   0.0190   0.0062
     0.0018   0.0000   0.0000   0.0000   0.0000   0.0000   0.0000   0.0000
     0.0000   0.0000   0.0000   0.0000   0.0000   0.0000   0.0000   0.0000
     0.0000   0.0000   0.0000   0.0000   0.0000   0.0000   0.0000   0.0000
     0.0000   0.0000   0.0000   0.0000   0.0000   0.0000   0.0000   0.0000
     0.0000   0.0000   0.0000   0.0000   0.0000   0.0000   0.0000   0.0000
     0.0000   0.0000   0.0000   0.0000   0.0000   0.0000   0.0000   0.0000
     0.0000

          k = 0.1429 0.3118 0.0000 (425381 PWs)   bands (ev):

   -50.6094 -50.6094 -50.6093 -50.6093 -50.4649 -50.4649 -50.4648 -50.4648
   -50.3934 -50.3933 -50.3933 -50.3932 -49.6440 -49.6440 -49.6439 -49.6438
   -49.6053 -49.6052 -49.6051 -49.6050 -49.5603 -49.5602 -49.5601 -49.5598
   -49.4437 -49.4417 -49.4386 -49.4372 -49.4309 -49.4294 -49.4286 -49.4282
   -49.4178 -49.4162 -49.4159 -49.4153 -49.4150 -49.4140 -49.4139 -49.4126
   -49.4125 -49.4114 -49.4112 -49.4106 -49.4094 -49.4086 -49.4079 -49.4073
   -49.4066 -49.4053 -49.4052 -49.4049 -49.4047 -49.4046 -49.4044 -49.4031
   -49.3992 -49.3989 -49.3988 -49.3984 -49.3680 -49.3677 -49.3671 -49.3669
   -49.2953 -49.2951 -49.2950 -49.2949  -6.2329  -5.9108  -5.8316  -5.5108
    -5.4958  -5.3442  -5.1739  -4.9440  -4.6264  -4.6165  -4.5815  -4.5374
    -4.4533  -4.3961  -4.2953  -4.2288  -4.2044  -4.1705  -4.1209  -4.0773
    -3.9042  -3.8813  -3.7237  -3.7064  -3.6297  -3.5300  -3.5210  -3.3167
    -3.3003  -3.2173  -3.1041  -2.9422  -2.9164  -2.8637  -2.8148  -2.7648
    -2.7504  -2.6496  -2.6257  -2.5567  -2.5333  -2.4801  -2.4257  -2.3919
    -2.2707  -2.2240  -2.2097  -2.1328  -2.0165  -1.9682  -1.8112  -1.7573
    -1.7554  -1.7444  -1.6113  -1.6046  -1.3999  -1.3326  -1.2695  -1.1709
    -1.0869  -0.9918  -0.9643  -0.9575  -0.9490  -0.8832  -0.7645  -0.6974
    -0.6387  -0.5629  -0.4314  -0.3110  -0.2298  -0.1456  -0.0497  -0.0262
     0.0572   0.0606   0.0938   0.1305   0.2088   0.2449   0.3165   0.3407
     0.3533

     occupation numbers 
     1.0000   1.0000   1.0000   1.0000   1.0000   1.0000   1.0000   1.0000
     1.0000   1.0000   1.0000   1.0000   1.0000   1.0000   1.0000   1.0000
     1.0000   1.0000   1.0000   1.0000   1.0000   1.0000   1.0000   1.0000
     1.0000   1.0000   1.0000   1.0000   1.0000   1.0000   1.0000   1.0000
     1.0000   1.0000   1.0000   1.0000   1.0000   1.0000   1.0000   1.0000
     1.0000   1.0000   1.0000   1.0000   1.0000   1.0000   1.0000   1.0000
     1.0000   1.0000   1.0000   1.0000   1.0000   1.0000   1.0000   1.0000
     1.0000   1.0000   1.0000   1.0000   1.0000   1.0000   1.0000   1.0000
     1.0000   1.0000   1.0000   1.0000   1.0000   1.0000   1.0000   1.0000
     1.0000   1.0000   1.0000   1.0000   1.0000   1.0000   1.0000   1.0000
     1.0000   1.0000   1.0000   1.0000   1.0000   1.0000   1.0000   1.0000
     1.0000   1.0000   1.0000   1.0000   1.0000   1.0000   1.0000   1.0012
     1.0021   1.0189   1.0824   0.6110   0.4697   0.2269   0.0909   0.0278
     0.0189   0.0007   0.0003   0.0000   0.0000   0.0000   0.0000   0.0000
     0.0000   0.0000   0.0000   0.0000   0.0000   0.0000   0.0000   0.0000
     0.0000   0.0000   0.0000   0.0000   0.0000   0.0000   0.0000   0.0000
     0.0000   0.0000   0.0000   0.0000   0.0000   0.0000   0.0000   0.0000
     0.0000   0.0000   0.0000   0.0000   0.0000   0.0000   0.0000   0.0000
     0.0000   0.0000   0.0000   0.0000   0.0000   0.0000   0.0000   0.0000
     0.0000

          k = 0.1429 0.4504 0.0000 (425406 PWs)   bands (ev):

   -50.6094 -50.6094 -50.6093 -50.6093 -50.4649 -50.4649 -50.4648 -50.4648
   -50.3934 -50.3933 -50.3933 -50.3932 -49.6440 -49.6440 -49.6439 -49.6438
   -49.6053 -49.6052 -49.6051 -49.6050 -49.5603 -49.5602 -49.5601 -49.5598
   -49.4436 -49.4416 -49.4386 -49.4372 -49.4310 -49.4294 -49.4286 -49.4282
   -49.4178 -49.4162 -49.4158 -49.4154 -49.4151 -49.4139 -49.4137 -49.4128
   -49.4126 -49.4114 -49.4112 -49.4106 -49.4094 -49.4087 -49.4079 -49.4074
   -49.4065 -49.4054 -49.4050 -49.4047 -49.4046 -49.4046 -49.4044 -49.4033
   -49.3992 -49.3989 -49.3988 -49.3984 -49.3680 -49.3677 -49.3671 -49.3669
   -49.2953 -49.2951 -49.2950 -49.2949  -6.1098  -6.0247  -5.7874  -5.6983
    -5.4497  -5.2243  -5.1335  -5.1279  -4.8080  -4.7348  -4.5839  -4.4732
    -4.4594  -4.4038  -4.3595  -4.2454  -3.9568  -3.9551  -3.9051  -3.8836
    -3.8603  -3.7543  -3.7204  -3.6643  -3.5954  -3.5516  -3.4822  -3.3936
    -3.3372  -3.1682  -3.1079  -3.0991  -3.0668  -2.9743  -2.9497  -2.8967
    -2.7307  -2.6926  -2.5702  -2.5477  -2.5468  -2.5037  -2.4585  -2.4105
    -2.3417  -2.3099  -2.2088  -2.1988  -2.1012  -2.0220  -2.0028  -1.6558
    -1.6323  -1.6176  -1.5219  -1.5101  -1.4218  -1.3969  -1.2503  -1.2234
    -1.1931  -1.0452  -1.0132  -0.9325  -0.8737  -0.8556  -0.8211  -0.6401
    -0.6243  -0.5427  -0.3790  -0.3584  -0.2843  -0.1859   0.0377   0.0655
     0.1367   0.1794   0.2322   0.2528   0.2624   0.3232   0.3303   0.3649
     0.3957

     occupation numbers 
     1.0000   1.0000   1.0000   1.0000   1.0000   1.0000   1.0000   1.0000
     1.0000   1.0000   1.0000   1.0000   1.0000   1.0000   1.0000   1.0000
     1.0000   1.0000   1.0000   1.0000   1.0000   1.0000   1.0000   1.0000
     1.0000   1.0000   1.0000   1.0000   1.0000   1.0000   1.0000   1.0000
     1.0000   1.0000   1.0000   1.0000   1.0000   1.0000   1.0000   1.0000
     1.0000   1.0000   1.0000   1.0000   1.0000   1.0000   1.0000   1.0000
     1.0000   1.0000   1.0000   1.0000   1.0000   1.0000   1.0000   1.0000
     1.0000   1.0000   1.0000   1.0000   1.0000   1.0000   1.0000   1.0000
     1.0000   1.0000   1.0000   1.0000   1.0000   1.0000   1.0000   1.0000
     1.0000   1.0000   1.0000   1.0000   1.0000   1.0000   1.0000   1.0000
     1.0000   1.0000   1.0000   1.0000   1.0000   1.0000   1.0000   1.0000
     1.0000   1.0000   1.0000   1.0000   1.0000   1.0000   1.0000   1.0001
     1.0006   1.0459   1.0815   1.0832   1.0704   0.7829   0.6519   0.3688
     0.0107   0.0032   0.0000   0.0000   0.0000   0.0000   0.0000   0.0000
     0.0000   0.0000   0.0000   0.0000   0.0000   0.0000   0.0000   0.0000
     0.0000   0.0000   0.0000   0.0000   0.0000   0.0000   0.0000   0.0000
     0.0000   0.0000   0.0000   0.0000   0.0000   0.0000   0.0000   0.0000
     0.0000   0.0000   0.0000   0.0000   0.0000   0.0000   0.0000   0.0000
     0.0000   0.0000   0.0000   0.0000   0.0000   0.0000   0.0000   0.0000
     0.0000

          k = 0.1429-0.3811 0.0000 (425398 PWs)   bands (ev):

   -50.6094 -50.6094 -50.6093 -50.6093 -50.4649 -50.4649 -50.4648 -50.4648
   -50.3934 -50.3933 -50.3933 -50.3932 -49.6440 -49.6440 -49.6439 -49.6438
   -49.6053 -49.6052 -49.6051 -49.6050 -49.5603 -49.5602 -49.5601 -49.5598
   -49.4436 -49.4416 -49.4386 -49.4372 -49.4310 -49.4294 -49.4286 -49.4283
   -49.4178 -49.4161 -49.4158 -49.4156 -49.4150 -49.4138 -49.4138 -49.4127
   -49.4125 -49.4113 -49.4112 -49.4106 -49.4093 -49.4088 -49.4079 -49.4074
   -49.4062 -49.4057 -49.4050 -49.4048 -49.4047 -49.4046 -49.4044 -49.4032
   -49.3992 -49.3989 -49.3988 -49.3984 -49.3680 -49.3677 -49.3671 -49.3669
   -49.2953 -49.2951 -49.2950 -49.2949  -6.1763  -5.9360  -5.8521  -5.6107
    -5.3579  -5.2893  -5.0467  -5.0455  -5.0237  -4.8062  -4.7101  -4.5239
    -4.5131  -4.4409  -4.2725  -4.1821  -4.1399  -3.9995  -3.9386  -3.8671
    -3.6958  -3.6668  -3.6609  -3.5064  -3.4744  -3.4143  -3.4012  -3.3522
    -3.3183  -3.2044  -3.1815  -3.1554  -3.0674  -3.0452  -2.8850  -2.7762
    -2.7353  -2.6781  -2.6110  -2.6094  -2.5650  -2.5611  -2.5021  -2.4392
    -2.4292  -2.3281  -2.3085  -2.2940  -1.9882  -1.9863  -1.8834  -1.8044
    -1.6928  -1.6872  -1.6412  -1.5855  -1.4507  -1.3605  -1.2714  -1.2230
    -1.1710  -1.0928  -1.0286  -0.8999  -0.8891  -0.7294  -0.6847  -0.6121
    -0.5853  -0.5112  -0.4864  -0.4516  -0.2826  -0.1417   0.0027   0.0188
     0.1286   0.1490   0.1708   0.1817   0.2351   0.2558   0.3784   0.4051
     0.4148

     occupation numbers 
     1.0000   1.0000   1.0000   1.0000   1.0000   1.0000   1.0000   1.0000
     1.0000   1.0000   1.0000   1.0000   1.0000   1.0000   1.0000   1.0000
     1.0000   1.0000   1.0000   1.0000   1.0000   1.0000   1.0000   1.0000
     1.0000   1.0000   1.0000   1.0000   1.0000   1.0000   1.0000   1.0000
     1.0000   1.0000   1.0000   1.0000   1.0000   1.0000   1.0000   1.0000
     1.0000   1.0000   1.0000   1.0000   1.0000   1.0000   1.0000   1.0000
     1.0000   1.0000   1.0000   1.0000   1.0000   1.0000   1.0000   1.0000
     1.0000   1.0000   1.0000   1.0000   1.0000   1.0000   1.0000   1.0000
     1.0000   1.0000   1.0000   1.0000   1.0000   1.0000   1.0000   1.0000
     1.0000   1.0000   1.0000   1.0000   1.0000   1.0000   1.0000   1.0000
     1.0000   1.0000   1.0000   1.0000   1.0000   1.0000   1.0000   1.0000
     1.0000   1.0000   1.0000   1.0000   1.0000   1.0000   1.0001   1.0004
     1.0012   1.0246   1.0373   1.0546   1.0710   1.0393   0.3143   0.0372
     0.0122   0.0019   0.0001   0.0001   0.0000   0.0000   0.0000   0.0000
     0.0000   0.0000   0.0000   0.0000   0.0000   0.0000   0.0000   0.0000
     0.0000   0.0000   0.0000   0.0000   0.0000   0.0000   0.0000   0.0000
     0.0000   0.0000   0.0000   0.0000   0.0000   0.0000   0.0000   0.0000
     0.0000   0.0000   0.0000   0.0000   0.0000   0.0000   0.0000   0.0000
     0.0000   0.0000   0.0000   0.0000   0.0000   0.0000   0.0000   0.0000
     0.0000

          k = 0.1429-0.2425 0.0000 (425377 PWs)   bands (ev):

   -50.6094 -50.6094 -50.6093 -50.6093 -50.4649 -50.4649 -50.4648 -50.4648
   -50.3934 -50.3933 -50.3933 -50.3932 -49.6440 -49.6440 -49.6439 -49.6438
   -49.6053 -49.6052 -49.6051 -49.6050 -49.5603 -49.5602 -49.5601 -49.5598
   -49.4437 -49.4416 -49.4386 -49.4372 -49.4308 -49.4294 -49.4286 -49.4283
   -49.4177 -49.4161 -49.4161 -49.4157 -49.4150 -49.4140 -49.4138 -49.4125
   -49.4124 -49.4113 -49.4112 -49.4106 -49.4093 -49.4088 -49.4079 -49.4072
   -49.4060 -49.4059 -49.4055 -49.4049 -49.4047 -49.4046 -49.4044 -49.4029
   -49.3992 -49.3989 -49.3988 -49.3984 -49.3680 -49.3677 -49.3671 -49.3669
   -49.2953 -49.2951 -49.2950 -49.2949  -6.2783  -5.9555  -5.7186  -5.4208
    -5.3661  -5.2364  -5.2018  -4.9168  -4.8789  -4.8330  -4.8226  -4.6364
    -4.5888  -4.5172  -4.3498  -4.2960  -4.2790  -4.0586  -3.9577  -3.7686
    -3.7199  -3.7164  -3.7155  -3.5760  -3.5286  -3.3829  -3.3671  -3.2134
    -3.1891  -3.1295  -3.1241  -2.9896  -2.9478  -2.8525  -2.8209  -2.7781
    -2.7669  -2.7254  -2.6929  -2.6756  -2.6489  -2.6066  -2.4898  -2.3680
    -2.2427  -2.2404  -2.2282  -2.1217  -2.0065  -2.0020  -1.9454  -1.9258
    -1.9030  -1.7930  -1.6371  -1.5965  -1.4914  -1.3466  -1.3213  -1.2940
    -1.1572  -1.0331  -1.0134  -0.9508  -0.9505  -0.7664  -0.7393  -0.7000
    -0.5503  -0.5377  -0.3655  -0.3085  -0.2842  -0.1998  -0.1766  -0.0496
     0.0102   0.0333   0.0705   0.1587   0.2172   0.2784   0.3394   0.3748
     0.3752

     occupation numbers 
     1.0000   1.0000   1.0000   1.0000   1.0000   1.0000   1.0000   1.0000
     1.0000   1.0000   1.0000   1.0000   1.0000   1.0000   1.0000   1.0000
     1.0000   1.0000   1.0000   1.0000   1.0000   1.0000   1.0000   1.0000
     1.0000   1.0000   1.0000   1.0000   1.0000   1.0000   1.0000   1.0000
[...]
     atom   65 type  1   force =     0.00000000    0.00000000    0.00000000
     atom   66 type  1   force =     0.00000000    0.00000000    0.00000000
     atom   67 type  1   force =     0.00000000    0.00000000    0.00000000
     atom   68 type  1   force =     0.00000000    0.00000000    0.00000000
     The Hubbard contrib.    to forces
     atom    1 type  1   force =     0.00000000    0.00000000    0.00000000
     atom    2 type  1   force =     0.00000000    0.00000000    0.00000000
     atom    3 type  1   force =     0.00000000    0.00000000    0.00000000
     atom    4 type  1   force =     0.00000000    0.00000000    0.00000000
     atom    5 type  1   force =     0.00000000    0.00000000    0.00000000
     atom    6 type  1   force =     0.00000000    0.00000000    0.00000000
     atom    7 type  1   force =     0.00000000    0.00000000    0.00000000
     atom    8 type  1   force =     0.00000000    0.00000000    0.00000000
     atom    9 type  1   force =     0.00000000    0.00000000    0.00000000
     atom   10 type  1   force =     0.00000000    0.00000000    0.00000000
     atom   11 type  1   force =     0.00000000    0.00000000    0.00000000
     atom   12 type  1   force =     0.00000000    0.00000000    0.00000000
     atom   13 type  1   force =     0.00000000    0.00000000    0.00000000
     atom   14 type  1   force =     0.00000000    0.00000000    0.00000000
     atom   15 type  1   force =     0.00000000    0.00000000    0.00000000
     atom   16 type  1   force =     0.00000000    0.00000000    0.00000000
     atom   17 type  1   force =     0.00000000    0.00000000    0.00000000
     atom   18 type  1   force =     0.00000000    0.00000000    0.00000000
     atom   19 type  1   force =     0.00000000    0.00000000    0.00000000
     atom   20 type  1   force =     0.00000000    0.00000000    0.00000000
     atom   21 type  1   force =     0.00000000    0.00000000    0.00000000
     atom   22 type  1   force =     0.00000000    0.00000000    0.00000000
     atom   23 type  1   force =     0.00000000    0.00000000    0.00000000
     atom   24 type  1   force =     0.00000000    0.00000000    0.00000000
     atom   25 type  1   force =     0.00000000    0.00000000    0.00000000
     atom   26 type  1   force =     0.00000000    0.00000000    0.00000000
     atom   27 type  1   force =     0.00000000    0.00000000    0.00000000
     atom   28 type  1   force =     0.00000000    0.00000000    0.00000000
     atom   29 type  1   force =     0.00000000    0.00000000    0.00000000
     atom   30 type  1   force =     0.00000000    0.00000000    0.00000000
     atom   31 type  1   force =     0.00000000    0.00000000    0.00000000
     atom   32 type  1   force =     0.00000000    0.00000000    0.00000000
     atom   33 type  1   force =     0.00000000    0.00000000    0.00000000
     atom   34 type  1   force =     0.00000000    0.00000000    0.00000000
     atom   35 type  1   force =     0.00000000    0.00000000    0.00000000
     atom   36 type  1   force =     0.00000000    0.00000000    0.00000000
     atom   37 type  1   force =     0.00000000    0.00000000    0.00000000
     atom   38 type  1   force =     0.00000000    0.00000000    0.00000000
     atom   39 type  1   force =     0.00000000    0.00000000    0.00000000
     atom   40 type  1   force =     0.00000000    0.00000000    0.00000000
     atom   41 type  1   force =     0.00000000    0.00000000    0.00000000
     atom   42 type  1   force =     0.00000000    0.00000000    0.00000000
     atom   43 type  1   force =     0.00000000    0.00000000    0.00000000
     atom   44 type  1   force =     0.00000000    0.00000000    0.00000000
     atom   45 type  1   force =     0.00000000    0.00000000    0.00000000
     atom   46 type  1   force =     0.00000000    0.00000000    0.00000000
     atom   47 type  1   force =     0.00000000    0.00000000    0.00000000
     atom   48 type  1   force =     0.00000000    0.00000000    0.00000000
     atom   49 type  1   force =     0.00000000    0.00000000    0.00000000
     atom   50 type  1   force =     0.00000000    0.00000000    0.00000000
     atom   51 type  1   force =     0.00000000    0.00000000    0.00000000
     atom   52 type  1   force =     0.00000000    0.00000000    0.00000000
     atom   53 type  1   force =     0.00000000    0.00000000    0.00000000
     atom   54 type  1   force =     0.00000000    0.00000000    0.00000000
     atom   55 type  1   force =     0.00000000    0.00000000    0.00000000
     atom   56 type  1   force =     0.00000000    0.00000000    0.00000000
     atom   57 type  1   force =     0.00000000    0.00000000    0.00000000
     atom   58 type  1   force =     0.00000000    0.00000000    0.00000000
     atom   59 type  1   force =     0.00000000    0.00000000    0.00000000
     atom   60 type  1   force =     0.00000000    0.00000000    0.00000000
     atom   61 type  1   force =     0.00000000    0.00000000    0.00000000
     atom   62 type  1   force =     0.00000000    0.00000000    0.00000000
     atom   63 type  1   force =     0.00000000    0.00000000    0.00000000
     atom   64 type  1   force =     0.00000000    0.00000000    0.00000000
     atom   65 type  1   force =     0.00000000    0.00000000    0.00000000
     atom   66 type  1   force =     0.00000000    0.00000000    0.00000000
     atom   67 type  1   force =     0.00000000    0.00000000    0.00000000
     atom   68 type  1   force =     0.00000000    0.00000000    0.00000000
     The SCF correction term to forces
     atom    1 type  1   force =     0.00000088   -0.00000844   -0.00012884
     atom    2 type  1   force =    -0.00000079   -0.00000290    0.00013104
     atom    3 type  1   force =     0.00000098   -0.00001568    0.00010966
     atom    4 type  1   force =     0.00000078    0.00001508    0.00015008
     atom    5 type  1   force =    -0.00000160    0.00004694    0.00002151
     atom    6 type  1   force =     0.00000112    0.00001485   -0.00000340
     atom    7 type  1   force =     0.00000002   -0.00004115   -0.00000587
     atom    8 type  1   force =    -0.00000057   -0.00004705   -0.00001275
     atom    9 type  1   force =     0.00000003   -0.00001662   -0.00001093
     atom   10 type  1   force =    -0.00000077    0.00002795    0.00000538
     atom   11 type  1   force =    -0.00000094    0.00004918    0.00001760
     atom   12 type  1   force =     0.00000082    0.00004676    0.00002113
     atom   13 type  1   force =    -0.00000230    0.00000840   -0.00001569
     atom   14 type  1   force =    -0.00000114   -0.00007478    0.00003739
     atom   15 type  1   force =     0.00000105    0.00000766   -0.00004462
     atom   16 type  1   force =     0.00000061    0.00000589   -0.00014453
     atom   17 type  1   force =    -0.00000070   -0.00001757   -0.00008236
     atom   18 type  1   force =    -0.00000003   -0.00002849    0.00007008
     atom   19 type  1   force =    -0.00000212   -0.00001565    0.00000372
     atom   20 type  1   force =     0.00000076   -0.00003225   -0.00001872
     atom   21 type  1   force =     0.00000030    0.00004158   -0.00001728
     atom   22 type  1   force =    -0.00000182    0.00004961    0.00000443
     atom   23 type  1   force =     0.00000008    0.00003224    0.00000679
     atom   24 type  1   force =     0.00000036   -0.00005339    0.00001711
     atom   25 type  1   force =    -0.00000171   -0.00005553   -0.00002113
     atom   26 type  1   force =     0.00000138   -0.00002457    0.00001024
     atom   27 type  1   force =     0.00000001    0.00003643    0.00002424
     atom   28 type  1   force =    -0.00000048    0.00003226   -0.00008519
     atom   29 type  1   force =     0.00000096    0.00001307   -0.00011251
     atom   30 type  1   force =    -0.00000179    0.00001520    0.00002104
     atom   31 type  1   force =    -0.00000013   -0.00003753   -0.00011524
     atom   32 type  1   force =    -0.00000039    0.00000248    0.00014687
     atom   33 type  1   force =     0.00000130    0.00002537    0.00012403
     atom   34 type  1   force =    -0.00000026   -0.00000687    0.00015236
     atom   35 type  1   force =     0.00000019   -0.00000837   -0.00012817
     atom   36 type  1   force =    -0.00000042   -0.00000279    0.00013060
     atom   37 type  1   force =     0.00000029   -0.00001590    0.00010918
     atom   38 type  1   force =     0.00000057    0.00001542    0.00014976
     atom   39 type  1   force =    -0.00000122    0.00004734    0.00002230
     atom   40 type  1   force =     0.00000161    0.00001525   -0.00000360
     atom   41 type  1   force =     0.00000255   -0.00004107   -0.00000482
     atom   42 type  1   force =     0.00000011   -0.00004760   -0.00001222
     atom   43 type  1   force =    -0.00000076   -0.00001678   -0.00001033
     atom   44 type  1   force =     0.00000168    0.00002930    0.00000623
     atom   45 type  1   force =    -0.00000081    0.00004886    0.00001679
     atom   46 type  1   force =     0.00000179    0.00004663    0.00002169
     atom   47 type  1   force =    -0.00000020    0.00000860   -0.00001462
     atom   48 type  1   force =    -0.00000102   -0.00007453    0.00003746
     atom   49 type  1   force =    -0.00000048    0.00000711   -0.00004512
     atom   50 type  1   force =    -0.00000015    0.00000615   -0.00014476
     atom   51 type  1   force =    -0.00000170   -0.00001849   -0.00008326
     atom   52 type  1   force =    -0.00000061   -0.00002857    0.00007067
     atom   53 type  1   force =    -0.00000047   -0.00001509    0.00000406
     atom   54 type  1   force =     0.00000091   -0.00003251   -0.00001925
     atom   55 type  1   force =     0.00000206    0.00004275   -0.00001726
     atom   56 type  1   force =    -0.00000062    0.00005038    0.00000515
     atom   57 type  1   force =     0.00000230    0.00003303    0.00000744
     atom   58 type  1   force =     0.00000244   -0.00005392    0.00001795
     atom   59 type  1   force =     0.00000062   -0.00005559   -0.00002000
     atom   60 type  1   force =    -0.00000080   -0.00002500    0.00000885
     atom   61 type  1   force =     0.00000047    0.00003759    0.00002434
     atom   62 type  1   force =    -0.00000083    0.00003181   -0.00008608
     atom   63 type  1   force =     0.00000034    0.00001298   -0.00011265
     atom   64 type  1   force =    -0.00000080    0.00001487    0.00002074
     atom   65 type  1   force =    -0.00000151   -0.00003754   -0.00011643
     atom   66 type  1   force =    -0.00000086    0.00000249    0.00014690
     atom   67 type  1   force =     0.00000101    0.00002602    0.00012319
     atom   68 type  1   force =    -0.00000014   -0.00000747    0.00015235

     Total force =     0.001707     Total SCF correction =     0.000693
     SCF correction compared to forces is large: reduce conv_thr to get better values
     Energy error            =      3.6E-06 Ry
     Gradient error          =      3.5E-04 Ry/Bohr

     bfgs converged in   2 scf cycles and   1 bfgs steps
     (criteria: energy <  1.0E-05 Ry, force <  3.9E-04 Ry/Bohr)

     End of BFGS Geometry Optimization

     Final energy             =   -1022.5411696629 Ry

     File ./Li/Lithium.bfgs deleted, as requested
Begin final coordinates

ATOMIC_POSITIONS (angstrom)
Li              -0.0035739598        0.4216571787       19.9796307364
Li               0.0022849799        5.8517876053       33.3160445285
Li               2.4308648003        7.6779468921       31.6755859310
Li               2.4324551967        1.8764554832       31.9878960409
Li               0.0024686893        3.5419130822       30.8169949205
Li               2.4300497825        5.3658126351       29.0768547411
Li               2.4286118036        8.8317198255       25.7419606764
Li               0.0022246984        9.4041729947       30.0635814450
Li               0.0014665293        1.1831712220       28.2609405035
Li               2.4282372432        2.9890696441       26.4511432631
Li              -0.0016786451        4.6864338785       24.9277778391
Li               2.4276820718        6.4541253704       23.1415282603
Li               0.0004146858        7.0454542479       27.5036580403
Li               2.4272279519        0.5186584642       24.3447365414
Li              -0.0031324641        2.3717270863       22.4625290888
Li               2.4275330856        3.8237060537       20.5846693346
Li              -0.0024180131        8.2574003068       21.6859727804
Li               0.0030433623        0.5739094087       31.1603423711
Li               0.0013464128        6.5066085769       30.4813364289
Li               2.4306960551        8.2742968449       28.6950589580
Li               2.4308134098        2.4269428488       29.2781773809
Li               0.0004015301        4.1290137596       27.8808666242
Li               2.4286099421        5.9152783725       26.1191552048
Li               2.4265478146        9.4188225317       22.8058799931
Li               0.0007821941        9.9716573901       27.1717284436
Li              -0.0014940620        1.7624483606       25.3618719625
Li               2.4268016438        3.5565511565       23.5593020093
Li              -0.0018296421        5.2828002319       21.9473079651
Li               2.4267363292        7.1089165956       20.3068628529
Li              -0.0010314437        7.5949142257       24.5459664804
Li               2.4255934554        1.0691872253       21.6351341640
Li               0.0040541871        2.5240281045       33.6432815300
Li               2.4314489790        4.7033571733       31.9368952770
Li               0.0014704164        9.1369710918       33.0382440953
Li               4.8538175470        0.4215700326       19.9796373247
Li               4.8603920131        5.8517316603       33.3160884619
Li               7.2889827483        7.6779624358       31.6755847314
Li               7.2905003850        1.8764920403       31.9881178278
Li               4.8604944206        3.5419171971       30.8169850979
Li               7.2880624511        5.3658149699       29.0767997344
Li               7.2866843988        8.8317316959       25.7419726775
Li               4.8602661633        9.4042088278       30.0635113308
Li               4.8595364589        1.1831772817       28.2609565900
Li               7.2862984711        2.9890700488       26.4511925898
Li               4.8563554863        4.6864361089       24.9277659497
Li               7.2856959904        6.4540727145       23.1414473426
Li               4.8584714455        7.0454578304       27.5037158979
Li               7.2852617260        0.5187186462       24.3444722349
Li               4.8550398023        2.3717089400       22.4625295542
Li               7.2856215829        3.8239560136       20.5847711268
Li               4.8556044728        8.2573289428       21.6860885014
Li               4.8611488166        0.5739022339       31.1603476509
Li               4.8594034784        6.5066597701       30.4814114184
Li               7.2887609968        8.2743031403       28.6950620260
Li               7.2888691154        2.4269387845       29.2782889921
Li               4.8584299807        4.1290076716       27.8808468860
Li               7.2866395498        5.9152797348       26.1191101615
Li               7.2846183678        9.4188229207       22.8058734034
Li               4.8588097436        9.9716812206       27.1715734341
Li               4.8565746222        1.7624584728       25.3618868609
Li               7.2848455112        3.5565318844       23.5593176595
Li               4.8561110772        5.2827589833       21.9472932995
Li               7.2847115210        7.1090375942       20.3068318395
Li               4.8570476375        7.5949325193       24.5460524622
Li               7.2836410066        1.0691129251       21.6346272732
Li               4.8618066821        2.5239893993       33.6432747368
Li               7.2894907114        4.7033861963       31.9368185247
Li               4.8595065969        9.1368341660       33.0381398633
End final coordinates



     Writing all to output data dir ./Li/Lithium.save/ :
     XML data file
     init_run     :     35.57s CPU     48.13s WALL (       1 calls)
     electrons    :   3309.45s CPU   4418.68s WALL (       2 calls)
     update_pot   :      0.19s CPU      0.23s WALL (       1 calls)
     forces       :    222.18s CPU    230.42s WALL (       2 calls)

     Called by init_run:
     wfcinit      :      7.59s CPU     10.75s WALL (       1 calls)
     wfcinit:wfcr :      6.98s CPU     10.12s WALL (      13 calls)
     potinit      :      1.18s CPU      1.26s WALL (       1 calls)
     hinit0       :     11.55s CPU     20.45s WALL (       1 calls)

     Called by electrons:
     c_bands      :   2952.23s CPU   3977.86s WALL (      29 calls)
     sum_band     :    104.02s CPU    146.93s WALL (      29 calls)
     v_of_rho     :      4.16s CPU      4.84s WALL (      30 calls)
     v_h          :      0.34s CPU      0.40s WALL (      30 calls)
     v_xc         :      3.81s CPU      4.43s WALL (      30 calls)
     newd         :      2.45s CPU      3.16s WALL (      30 calls)
     PAW_pot      :      0.35s CPU      0.46s WALL (      31 calls)
     mix_rho      :     11.65s CPU     13.61s WALL (      29 calls)

     Called by c_bands:
     init_us_2    :     20.20s CPU     20.31s WALL (     806 calls)
     cegterg      :   2770.61s CPU   3518.97s WALL (     776 calls)

     Called by sum_band:
     sum_band:wei :      0.07s CPU      0.08s WALL (      29 calls)
     sum_band:loo :    100.71s CPU    143.32s WALL (      29 calls)
     sum_band:buf :      2.10s CPU      2.16s WALL (     377 calls)
     sum_band:ini :      9.60s CPU      9.62s WALL (     377 calls)
     sum_band:cal :     20.05s CPU     21.45s WALL (     390 calls)
     sum_band:bec :      0.15s CPU      0.19s WALL (     390 calls)
     addusdens    :      2.48s CPU      2.50s WALL (      29 calls)
                                        0.00s GPU  (      29 calls)
     addusd:skk   :      0.70s CPU      0.70s WALL (      29 calls)
                                        0.00s GPU  (      29 calls)

     Called by *egterg:
     cdiaghg      :    681.88s CPU    786.19s WALL (   12736 calls)
     cegterg:over :    230.44s CPU    256.82s WALL (   12073 calls)
     cegterg:upda :    190.88s CPU    198.62s WALL (   12073 calls)
     cegterg:last :     79.02s CPU     85.06s WALL (    1059 calls)
     cdiaghg:chol :     35.45s CPU     66.24s WALL (   12736 calls)
     cdiaghg:inve :     14.32s CPU     16.36s WALL (   12736 calls)
     cdiaghg:para :    187.38s CPU    221.58s WALL (   25472 calls)
     h_psi        :   1377.17s CPU   1979.28s WALL (   12862 calls)
     s_psi        :    174.96s CPU    175.67s WALL (   12862 calls)
     g_psi        :      2.92s CPU      3.19s WALL (   12073 calls)

     Called by h_psi:
     h_psi:calbec :    209.00s CPU    227.28s WALL (   12862 calls)
     vloc_psi     :    984.51s CPU   1566.14s WALL (   12862 calls)
                                        0.00s GPU  (   12862 calls)
     add_vuspsi   :    172.91s CPU    174.66s WALL (   12862 calls)

     General routines
     calbec       :    233.79s CPU    253.80s WALL (   13356 calls)
     fft          :      7.08s CPU     15.82s WALL (     392 calls)
     ffts         :      6.59s CPU      7.83s WALL (    3257 calls)
     fftw         :   1015.61s CPU   1618.99s WALL (  886259 calls)
     interpolate  :      1.31s CPU      1.37s WALL (      30 calls)

     Parallel routines

     PAW routines
     PAW_pot      :      0.35s CPU      0.46s WALL (      31 calls)

     Environ routines

     PWSCF        :  59m47.28s CPU      1h18m WALL


   This run was terminated on:  13: 6:47   3Jan2025            

=------------------------------------------------------------------------------=
   JOB DONE.
=------------------------------------------------------------------------------=
