
     Program PWSCF v.7.4 starts on 26Dec2024 at 12: 5:28 

     This program is part of the open-source Quantum ESPRESSO suite
     for quantum simulation of materials; please cite
         "P. Giannozzi et al., J. Phys.:Condens. Matter 21 395502 (2009);
         "P. Giannozzi et al., J. Phys.:Condens. Matter 29 465901 (2017);
         "P. Giannozzi et al., J. Chem. Phys. 152 154105 (2020);
          URL http://www.quantum-espresso.org", 
     in publications or presentations arising from this work. More details at
     http://www.quantum-espresso.org/quote

     Parallel version (MPI & OpenMP), running on     192 processor cores
     Number of MPI processes:               192
     Threads/MPI process:                     1

     MPI processes distributed on     1 nodes
     643153 MiB available memory on the printing compute node when the environment starts
 
     Reading input from espresso.pwi
Warning: card &CELL ignored
Warning: card    PRESS_CONV_THR   = 0.1 ignored
Warning: card    CELL_DOFREE      = 'ALL' ignored
Warning: card / ignored
Warning: card &FCP ignored
Warning: card / ignored
Warning: card &RISM ignored
Warning: card / ignored

     Current dimensions of program PWSCF are:
     Max number of different atomic species (ntypx) = 10
     Max number of k-points (npk) =  40000
     Max angular momentum in pseudopotentials (lmaxx) =  4

     IMPORTANT: XC functional enforced from input :
     Exchange-correlation= PBE
                           (   1   4   3   4   0   0   0)
     Any further DFT definition will be discarded
     Please, verify this is what you really want

 
     Reading input from environ.in:
     * using ionic solvent mode
     * setting boundary derivatives method to SSCS default
     * setting electrolyte-boundary derivatives method to SSCS default

Environ Warning (1001): card EOF ignored

     
     Found identity + (  0.5000  0.0000 -0.0000) symmetry
     This is a supercell, fractional translations are disabled
 
     R & G space division:  proc/nbgrp/npool/nimage =     192
     Subspace diagonalization in iterative solution of the eigenvalue problem:
     a serial algorithm will be used

 
     Parallelization info
     --------------------
     sticks:   dense  smooth     PW     G-vecs:    dense   smooth      PW
     Min          44      17      4                25011     6289     854
     Max          45      18      5                25049     6372     955
     Sum        8497    3389    941              4805333  1215433  176195
 
     Using Slab Decomposition
 


     bravais-lattice index     =           12
     lattice parameter (alat)  =      12.9830  a.u.
     unit-cell volume          =   12574.0519 (a.u.)^3
     number of atoms/cell      =           20
     number of atomic types    =            1
     number of electrons       =        60.00
     number of Kohn-Sham states=           45
     kinetic-energy cutoff     =      80.0000  Ry
     charge density cutoff     =     800.0000  Ry
     scf convergence threshold =      1.0E-14
     mixing beta               =       0.2000
     number of iterations used =            8  local-TF  mixing
     Exchange-correlation= PBE
                           (   1   4   3   4   0   0   0)

     ================================================================================
 
                                  Environ Setup Summary

     ================================================================================
 
     Please cite

          O. Andreussi, I. Dabo and N. Marzari, J. Chem. Phys. 136, 064102 (2012)
          F. Nattino, M. Truscott, N. Marzari, and O. Andreussi, J. Chem. Phys. 150, 041722 (2019)

     in publications or presentations arising from this work.

     ================================================================================
 
     Parameters
     ==========

     compensation onset threshold      =               0.1000E+00
     static permittivity               =                    89.90
     surface tension in input (dyn/cm) =                    37.30
     surface tension in internal units =               0.4792E-04

     Solvent Boundary
     ================

     solvent mode                      =                    ionic
     derivatives method                =                   lowmem
     electrolyte derivatives method    =                   lowmem
     numerical core for derivatives    =                      fft
     switching function adopted        =                     SCCS
     density limit for vacuum region   =               0.5000E-02
     density limit for bulk solvent    =               0.1000E-03
     soft-sphere radius mode           =                    bondi
     soft-sphere softness              =                     0.50
     alpha                             =                     1.32

     Electrostatic Setup
     ===================

     electrostatic problem to solve    =                    modpb
     numerical solver adopted          =                   newton
     type of auxiliary density adopted =                     none
     numerical core for poisson        =                      fft
     adopting a nested solver scheme
     inner solver                      =                       cg
     inner core                        =                      fft
     type of pbc corrections           =                parabolic
     numerical core for corrections    =                      1da

     ================================================================================
 

     celldm(1)=  12.983009  celldm(2)=   0.829156  celldm(3)=   7.267908
     celldm(4)=  -0.301511  celldm(5)=   0.000000  celldm(6)=   0.000000

     crystal axes: (cart. coord. in units of alat)
               a(1) = (   1.000000   0.000000   0.000000 )  
               a(2) = (  -0.250000   0.790569   0.000000 )  
               a(3) = (   0.000000   0.000000   7.267908 )  

     reciprocal axes: (cart. coord. in units 2 pi/alat)
               b(1) = (  1.000000  0.316228  0.000000 )  
               b(2) = (  0.000000  1.264912  0.000000 )  
               b(3) = (  0.000000  0.000000  0.137591 )  


     PseudoPot. # 1 for Li read from file:
     /home/ba3g18/Repos/Pseudopotentials/pslibrary.1.0.0/pbe/PSEUDOPOTENTIALS/Li.pbe-sl-kjpaw_psl.1.0.0.UPF
     MD5 check sum: 3f4d2cafebb47c6c3aa8ed472e6f074d
     Pseudo is Projector augmented-wave, Zval =  3.0
     Generated using 'atomic' code by A. Dal Corso  v.7.4
     Shape of augmentation charge: PSQ
     Using radial grid of 1017 points,  4 beta functions with: 
                l(1) =   0
                l(2) =   0
                l(3) =   1
                l(4) =   1
     Q(r) pseudized with 0 coefficients 


     atomic species   valence    mass     pseudopotential
     Li                3.00     6.94000     Li( 1.00)

     No symmetry found


                                    s                        frac. trans.

      isym =  1     identity                                     

 cryst.   s( 1) = (     1          0          0      )
                  (     0          1          0      )
                  (     0          0          1      )

 cart.    s( 1) = (  1.0000000 -0.0000000  0.0000000 )
                  (  0.0000000  1.0000000  0.0000000 )
                  (  0.0000000  0.0000000  1.0000000 )


     point group C_1 (1)    
     there are  1 classes
     the character table:

       E    
A      1.00

     the symmetry operations in each class and the name of the first element:

     E        1
          identity                                               

   Cartesian axes

     site n.     atom                  positions (alat units)
         1        Li     tau(   1) = (   0.2503994   0.3265251   3.0691953  )
         2        Li     tau(   2) = (   0.0003906   0.6336293   3.2542296  )
         3        Li     tau(   3) = (   0.0001999   0.1668381   3.3784439  )
         4        Li     tau(   4) = (   0.2501127   0.4681284   3.5694301  )
         5        Li     tau(   5) = (   0.2498822   0.0062157   3.6984756  )
         6        Li     tau(   6) = (  -0.0001999   0.3075037   3.8894637  )
         7        Li     tau(   7) = (   0.2496070   0.6312840   4.0136757  )
         8        Li     tau(   8) = (   0.2496016   0.1478161   4.1987148  )
         9        Li     tau(   9) = (  -0.0004490   0.5024846   4.3402226  )
        10        Li     tau(  10) = (   0.5004499  -0.0281427   2.9276879  )
        11        Li     tau(  11) = (   0.7503985   0.3265257   3.0691926  )
        12        Li     tau(  12) = (   0.5003930   0.6336269   3.2542317  )
        13        Li     tau(  13) = (   0.5002026   0.1668380   3.3784481  )
        14        Li     tau(  14) = (   0.7501179   0.4681261   3.5694319  )
        15        Li     tau(  15) = (   0.7498872   0.0062134   3.6984773  )
        16        Li     tau(  16) = (   0.4997975   0.3075038   3.8894593  )
        17        Li     tau(  17) = (   0.7496094   0.6312815   4.0136779  )
        18        Li     tau(  18) = (   0.7496006   0.1478167   4.1987121  )
        19        Li     tau(  19) = (   0.4995501   0.5024846   4.3402196  )
        20        Li     tau(  20) = (   1.0004490  -0.0281428   2.9276850  )

   Crystallographic axes

     site n.     atom                  positions (cryst. coord.)
         1        Li     tau(   1) = (  0.3536558  0.4130255  0.4222942  )
         2        Li     tau(   2) = (  0.2007619  0.8014852  0.4477533  )
         3        Li     tau(   3) = (  0.0529587  0.2110355  0.4648441  )
         4        Li     tau(   4) = (  0.3981480  0.5921411  0.4911221  )
         5        Li     tau(   5) = (  0.2518477  0.0078623  0.5088776  )
         6        Li     tau(   6) = (  0.0970414  0.3889651  0.5351559  )
         7        Li     tau(   7) = (  0.4492367  0.7985185  0.5522464  )
         8        Li     tau(   8) = (  0.2963452  0.1869743  0.5777061  )
         9        Li     tau(   9) = (  0.1584507  0.6355986  0.5971764  )
        10        Li     tau(  10) = (  0.4915504 -0.0355980  0.4028240  )
        11        Li     tau(  11) = (  0.8536551  0.4130261  0.4222938  )
        12        Li     tau(  12) = (  0.7007635  0.8014821  0.4477536  )
        13        Li     tau(  13) = (  0.5529614  0.2110353  0.4648447  )
        14        Li     tau(  14) = (  0.8981525  0.5921382  0.4911224  )
        15        Li     tau(  15) = (  0.7518521  0.0078594  0.5088779  )
        16        Li     tau(  16) = (  0.5970388  0.3889652  0.5351553  )
        17        Li     tau(  17) = (  0.9492383  0.7985154  0.5522467  )
        18        Li     tau(  18) = (  0.7963443  0.1869751  0.5777058  )
        19        Li     tau(  19) = (  0.6584498  0.6355987  0.5971760  )
        20        Li     tau(  20) = (  0.9915494 -0.0355982  0.4028236  )

     number of k points=    62  Marzari-Vanderbilt smearing, width (Ry)=  0.0100
                       cart. coord. in units 2pi/alat
        k(    1) = (   0.0000000   0.0000000   0.0000000), wk =   0.0166667
        k(    2) = (   0.0000000   0.1054093   0.0000000), wk =   0.0333333
        k(    3) = (   0.0000000   0.2108186   0.0000000), wk =   0.0333333
        k(    4) = (   0.0000000   0.3162279   0.0000000), wk =   0.0333333
        k(    5) = (   0.0000000   0.4216372   0.0000000), wk =   0.0333333
        k(    6) = (   0.0000000   0.5270466   0.0000000), wk =   0.0333333
        k(    7) = (   0.0000000  -0.6324559   0.0000000), wk =   0.0166667
        k(    8) = (   0.1000000   0.0316228   0.0000000), wk =   0.0333333
        k(    9) = (   0.1000000   0.1370321   0.0000000), wk =   0.0333333
        k(   10) = (   0.1000000   0.2424414   0.0000000), wk =   0.0333333
        k(   11) = (   0.1000000   0.3478507   0.0000000), wk =   0.0333333
        k(   12) = (   0.1000000   0.4532600   0.0000000), wk =   0.0333333
        k(   13) = (   0.1000000   0.5586693   0.0000000), wk =   0.0333333
        k(   14) = (   0.1000000  -0.6008331   0.0000000), wk =   0.0333333
        k(   15) = (   0.1000000  -0.4954238   0.0000000), wk =   0.0333333
        k(   16) = (   0.1000000  -0.3900144   0.0000000), wk =   0.0333333
        k(   17) = (   0.1000000  -0.2846051   0.0000000), wk =   0.0333333
        k(   18) = (   0.1000000  -0.1791958   0.0000000), wk =   0.0333333
        k(   19) = (   0.1000000  -0.0737865   0.0000000), wk =   0.0333333
        k(   20) = (   0.2000000   0.0632456   0.0000000), wk =   0.0333333
        k(   21) = (   0.2000000   0.1686549   0.0000000), wk =   0.0333333
        k(   22) = (   0.2000000   0.2740642   0.0000000), wk =   0.0333333
        k(   23) = (   0.2000000   0.3794735   0.0000000), wk =   0.0333333
        k(   24) = (   0.2000000   0.4848828   0.0000000), wk =   0.0333333
        k(   25) = (   0.2000000   0.5902921   0.0000000), wk =   0.0333333
        k(   26) = (   0.2000000  -0.5692103   0.0000000), wk =   0.0333333
        k(   27) = (   0.2000000  -0.4638010   0.0000000), wk =   0.0333333
        k(   28) = (   0.2000000  -0.3583917   0.0000000), wk =   0.0333333
        k(   29) = (   0.2000000  -0.2529823   0.0000000), wk =   0.0333333
        k(   30) = (   0.2000000  -0.1475730   0.0000000), wk =   0.0333333
        k(   31) = (   0.2000000  -0.0421637   0.0000000), wk =   0.0333333
        k(   32) = (   0.3000000   0.0948684   0.0000000), wk =   0.0333333
        k(   33) = (   0.3000000   0.2002777   0.0000000), wk =   0.0333333
        k(   34) = (   0.3000000   0.3056870   0.0000000), wk =   0.0333333
        k(   35) = (   0.3000000   0.4110963   0.0000000), wk =   0.0333333
        k(   36) = (   0.3000000   0.5165056   0.0000000), wk =   0.0333333
        k(   37) = (   0.3000000   0.6219149   0.0000000), wk =   0.0333333
        k(   38) = (   0.3000000  -0.5375875   0.0000000), wk =   0.0333333
        k(   39) = (   0.3000000  -0.4321782   0.0000000), wk =   0.0333333
        k(   40) = (   0.3000000  -0.3267689   0.0000000), wk =   0.0333333
        k(   41) = (   0.3000000  -0.2213596   0.0000000), wk =   0.0333333
        k(   42) = (   0.3000000  -0.1159502   0.0000000), wk =   0.0333333
        k(   43) = (   0.3000000  -0.0105409   0.0000000), wk =   0.0333333
        k(   44) = (   0.4000000   0.1264912   0.0000000), wk =   0.0333333
        k(   45) = (   0.4000000   0.2319005   0.0000000), wk =   0.0333333
        k(   46) = (   0.4000000   0.3373098   0.0000000), wk =   0.0333333
        k(   47) = (   0.4000000   0.4427191   0.0000000), wk =   0.0333333
        k(   48) = (   0.4000000   0.5481284   0.0000000), wk =   0.0333333
        k(   49) = (   0.4000000   0.6535377   0.0000000), wk =   0.0333333
        k(   50) = (   0.4000000  -0.5059647   0.0000000), wk =   0.0333333
        k(   51) = (   0.4000000  -0.4005554   0.0000000), wk =   0.0333333
        k(   52) = (   0.4000000  -0.2951461   0.0000000), wk =   0.0333333
        k(   53) = (   0.4000000  -0.1897368   0.0000000), wk =   0.0333333
        k(   54) = (   0.4000000  -0.0843274   0.0000000), wk =   0.0333333
        k(   55) = (   0.4000000   0.0210819   0.0000000), wk =   0.0333333
        k(   56) = (  -0.5000000  -0.1581140   0.0000000), wk =   0.0166667
        k(   57) = (  -0.5000000  -0.0527047   0.0000000), wk =   0.0333333
        k(   58) = (  -0.5000000   0.0527047   0.0000000), wk =   0.0333333
        k(   59) = (  -0.5000000   0.1581140   0.0000000), wk =   0.0333333
        k(   60) = (  -0.5000000   0.2635233   0.0000000), wk =   0.0333333
        k(   61) = (  -0.5000000   0.3689326   0.0000000), wk =   0.0333333
        k(   62) = (  -0.5000000  -0.7905698   0.0000000), wk =   0.0166667

                       cryst. coord.
        k(    1) = (   0.0000000   0.0000000   0.0000000), wk =   0.0166667
        k(    2) = (   0.0000000   0.0833333   0.0000000), wk =   0.0333333
        k(    3) = (   0.0000000   0.1666667   0.0000000), wk =   0.0333333
        k(    4) = (   0.0000000   0.2500000   0.0000000), wk =   0.0333333
        k(    5) = (   0.0000000   0.3333333   0.0000000), wk =   0.0333333
        k(    6) = (   0.0000000   0.4166667   0.0000000), wk =   0.0333333
        k(    7) = (   0.0000000  -0.5000000   0.0000000), wk =   0.0166667
        k(    8) = (   0.1000000  -0.0000000   0.0000000), wk =   0.0333333
        k(    9) = (   0.1000000   0.0833333   0.0000000), wk =   0.0333333
        k(   10) = (   0.1000000   0.1666667   0.0000000), wk =   0.0333333
        k(   11) = (   0.1000000   0.2500000   0.0000000), wk =   0.0333333
        k(   12) = (   0.1000000   0.3333333   0.0000000), wk =   0.0333333
        k(   13) = (   0.1000000   0.4166667   0.0000000), wk =   0.0333333
        k(   14) = (   0.1000000  -0.5000000   0.0000000), wk =   0.0333333
        k(   15) = (   0.1000000  -0.4166667   0.0000000), wk =   0.0333333
        k(   16) = (   0.1000000  -0.3333333   0.0000000), wk =   0.0333333
        k(   17) = (   0.1000000  -0.2500000   0.0000000), wk =   0.0333333
        k(   18) = (   0.1000000  -0.1666667   0.0000000), wk =   0.0333333
        k(   19) = (   0.1000000  -0.0833333   0.0000000), wk =   0.0333333
        k(   20) = (   0.2000000  -0.0000000   0.0000000), wk =   0.0333333
        k(   21) = (   0.2000000   0.0833333   0.0000000), wk =   0.0333333
        k(   22) = (   0.2000000   0.1666667   0.0000000), wk =   0.0333333
        k(   23) = (   0.2000000   0.2500000   0.0000000), wk =   0.0333333
        k(   24) = (   0.2000000   0.3333333   0.0000000), wk =   0.0333333
        k(   25) = (   0.2000000   0.4166667   0.0000000), wk =   0.0333333
        k(   26) = (   0.2000000  -0.5000000   0.0000000), wk =   0.0333333
        k(   27) = (   0.2000000  -0.4166667   0.0000000), wk =   0.0333333
        k(   28) = (   0.2000000  -0.3333333   0.0000000), wk =   0.0333333
        k(   29) = (   0.2000000  -0.2500000   0.0000000), wk =   0.0333333
        k(   30) = (   0.2000000  -0.1666667   0.0000000), wk =   0.0333333
        k(   31) = (   0.2000000  -0.0833333   0.0000000), wk =   0.0333333
        k(   32) = (   0.3000000  -0.0000000   0.0000000), wk =   0.0333333
        k(   33) = (   0.3000000   0.0833333   0.0000000), wk =   0.0333333
        k(   34) = (   0.3000000   0.1666667   0.0000000), wk =   0.0333333
        k(   35) = (   0.3000000   0.2500000   0.0000000), wk =   0.0333333
        k(   36) = (   0.3000000   0.3333333   0.0000000), wk =   0.0333333
        k(   37) = (   0.3000000   0.4166667   0.0000000), wk =   0.0333333
        k(   38) = (   0.3000000  -0.5000000   0.0000000), wk =   0.0333333
        k(   39) = (   0.3000000  -0.4166667   0.0000000), wk =   0.0333333
        k(   40) = (   0.3000000  -0.3333333   0.0000000), wk =   0.0333333
        k(   41) = (   0.3000000  -0.2500000   0.0000000), wk =   0.0333333
        k(   42) = (   0.3000000  -0.1666667   0.0000000), wk =   0.0333333
        k(   43) = (   0.3000000  -0.0833333   0.0000000), wk =   0.0333333
        k(   44) = (   0.4000000  -0.0000000   0.0000000), wk =   0.0333333
        k(   45) = (   0.4000000   0.0833333   0.0000000), wk =   0.0333333
        k(   46) = (   0.4000000   0.1666667   0.0000000), wk =   0.0333333
        k(   47) = (   0.4000000   0.2500000   0.0000000), wk =   0.0333333
        k(   48) = (   0.4000000   0.3333333   0.0000000), wk =   0.0333333
        k(   49) = (   0.4000000   0.4166667   0.0000000), wk =   0.0333333
        k(   50) = (   0.4000000  -0.5000000   0.0000000), wk =   0.0333333
        k(   51) = (   0.4000000  -0.4166667   0.0000000), wk =   0.0333333
        k(   52) = (   0.4000000  -0.3333333   0.0000000), wk =   0.0333333
        k(   53) = (   0.4000000  -0.2500000   0.0000000), wk =   0.0333333
        k(   54) = (   0.4000000  -0.1666667   0.0000000), wk =   0.0333333
        k(   55) = (   0.4000000  -0.0833333   0.0000000), wk =   0.0333333
        k(   56) = (  -0.5000000   0.0000000   0.0000000), wk =   0.0166667
        k(   57) = (  -0.5000000   0.0833333   0.0000000), wk =   0.0333333
        k(   58) = (  -0.5000000   0.1666667   0.0000000), wk =   0.0333333
        k(   59) = (  -0.5000000   0.2500000   0.0000000), wk =   0.0333333
        k(   60) = (  -0.5000000   0.3333333   0.0000000), wk =   0.0333333
        k(   61) = (  -0.5000000   0.4166667   0.0000000), wk =   0.0333333
        k(   62) = (  -0.5000000  -0.5000000   0.0000000), wk =   0.0166667

     Dense  grid:  4805333 G-vectors     FFT dimensions: ( 120, 100, 864)

     Smooth grid:  1215433 G-vectors     FFT dimensions: (  75,  64, 540)

     Dynamical RAM for                 wfc:       0.54 MB

     Dynamical RAM for     wfc (w. buffer):      34.22 MB

     Dynamical RAM for           str. fact:       0.38 MB

     Dynamical RAM for           local pot:       0.00 MB

     Dynamical RAM for          nlocal pot:       1.93 MB

     Dynamical RAM for                qrad:       0.65 MB

     Dynamical RAM for          rho,v,vnew:       2.52 MB

     Dynamical RAM for               rhoin:       0.84 MB

     Dynamical RAM for            rho*nmix:       6.11 MB

     Dynamical RAM for           G-vectors:       1.48 MB

     Dynamical RAM for          h,s,v(r/c):       0.37 MB

     Dynamical RAM for          <psi|beta>:       0.11 MB

     Dynamical RAM for                 psi:       1.09 MB

     Dynamical RAM for                hpsi:       1.09 MB

     Dynamical RAM for                spsi:       1.09 MB

     Dynamical RAM for      wfcinit/wfcrot:       1.13 MB

     Dynamical RAM for           addusdens:      24.06 MB

     Dynamical RAM for          addusforce:      38.79 MB

     Estimated static dynamical RAM per process >      45.07 MB

     Estimated max dynamical RAM per process >      89.97 MB

     Estimated total dynamical RAM >      16.87 GB

     Initial potential from superposition of free atoms

     starting charge      59.9078, renormalised to      60.0000

     negative rho (up, down):  2.154E-03 0.000E+00
     Starting wfcs are random
     Checking if some PAW data can be deallocated... 

     total cpu time spent up to now is        6.6 secs

     Self-consistent Calculation

     iteration #  1     ecut=    80.00 Ry     beta= 0.20
     Davidson diagonalization with overlap

---- Real-time Memory Report at c_bands before calling an iterative solver
           369 MiB given to the printing process from OS
             0 MiB allocation reported by mallinfo(arena+hblkhd)
        618490 MiB available memory on the node where the printing process lives
------------------
     ethr =  1.00E-02,  avg # of iterations = 11.9

     negative rho (up, down):  3.732E-05 0.000E+00

     total cpu time spent up to now is       29.5 secs

     total energy              =    -299.65349106 Ry
     estimated scf accuracy    <       2.86708699 Ry
     electrostatic embedding   =       0.00000000 Ry
     cavitation energy         =       0.01534486 Ry
     electrolyte free energy   =       0.00541203 Ry
     correction to one-el term =       0.00000000 Ry

     iteration #  2     ecut=    80.00 Ry     beta= 0.20
     Davidson diagonalization with overlap

---- Real-time Memory Report at c_bands before calling an iterative solver
           506 MiB given to the printing process from OS
             0 MiB allocation reported by mallinfo(arena+hblkhd)
        618651 MiB available memory on the node where the printing process lives
------------------
     ethr =  4.78E-03,  avg # of iterations =  4.3

     negative rho (up, down):  1.076E-07 0.000E+00

     total cpu time spent up to now is       38.4 secs

     total energy              =    -300.12864950 Ry
     estimated scf accuracy    <       1.02734446 Ry
     electrostatic embedding   =       0.00000000 Ry
     cavitation energy         =       0.01534486 Ry
     electrolyte free energy   =       0.00541203 Ry
     correction to one-el term =       0.00000000 Ry

     iteration #  3     ecut=    80.00 Ry     beta= 0.20
     Davidson diagonalization with overlap

---- Real-time Memory Report at c_bands before calling an iterative solver
           529 MiB given to the printing process from OS
             0 MiB allocation reported by mallinfo(arena+hblkhd)
        618197 MiB available memory on the node where the printing process lives
------------------
     ethr =  1.71E-03,  avg # of iterations =  4.5

     total cpu time spent up to now is       48.9 secs

     total energy              =    -300.61256299 Ry
     estimated scf accuracy    <       0.16816264 Ry
     electrostatic embedding   =       0.00000000 Ry
     cavitation energy         =       0.01534486 Ry
     electrolyte free energy   =       0.00541203 Ry
     correction to one-el term =       0.00000000 Ry

     iteration #  4     ecut=    80.00 Ry     beta= 0.20
     Davidson diagonalization with overlap

---- Real-time Memory Report at c_bands before calling an iterative solver
           546 MiB given to the printing process from OS
             0 MiB allocation reported by mallinfo(arena+hblkhd)
        618069 MiB available memory on the node where the printing process lives
------------------
     ethr =  2.80E-04,  avg # of iterations =  6.9

     total cpu time spent up to now is       61.6 secs

     total energy              =    -300.72497386 Ry
     estimated scf accuracy    <       0.25867540 Ry
     electrostatic embedding   =       0.00000000 Ry
     cavitation energy         =       0.01534486 Ry
     electrolyte free energy   =       0.00541203 Ry
     correction to one-el term =       0.00000000 Ry

     iteration #  5     ecut=    80.00 Ry     beta= 0.20
     Davidson diagonalization with overlap

---- Real-time Memory Report at c_bands before calling an iterative solver
           562 MiB given to the printing process from OS
             0 MiB allocation reported by mallinfo(arena+hblkhd)
        617932 MiB available memory on the node where the printing process lives
------------------
     ethr =  2.80E-04,  avg # of iterations =  1.5

     total cpu time spent up to now is       68.1 secs

     total energy              =    -300.69419333 Ry
     estimated scf accuracy    <       0.21763976 Ry
     electrostatic embedding   =       0.00000000 Ry
     cavitation energy         =       0.01534486 Ry
     electrolyte free energy   =       0.00541203 Ry
     correction to one-el term =       0.00000000 Ry

     iteration #  6     ecut=    80.00 Ry     beta= 0.20
     Davidson diagonalization with overlap

---- Real-time Memory Report at c_bands before calling an iterative solver
           572 MiB given to the printing process from OS
             0 MiB allocation reported by mallinfo(arena+hblkhd)
        617811 MiB available memory on the node where the printing process lives
------------------
     ethr =  2.80E-04,  avg # of iterations =  3.5

     add environment contribution to local potential

     total cpu time spent up to now is       77.1 secs

     total energy              =    -300.70342265 Ry
     estimated scf accuracy    <       0.04308639 Ry
     electrostatic embedding   =       0.00000000 Ry
     cavitation energy         =       0.01534486 Ry
     electrolyte free energy   =       0.00541203 Ry
     correction to one-el term =       0.00000000 Ry

     iteration #  7     ecut=    80.00 Ry     beta= 0.20
     Davidson diagonalization with overlap

---- Real-time Memory Report at c_bands before calling an iterative solver
           588 MiB given to the printing process from OS
             0 MiB allocation reported by mallinfo(arena+hblkhd)
        617133 MiB available memory on the node where the printing process lives
------------------
     c_bands:  2 eigenvalues not converged
     c_bands:  2 eigenvalues not converged
     c_bands:  2 eigenvalues not converged
     c_bands:  1 eigenvalues not converged
     c_bands:  2 eigenvalues not converged
     c_bands:  2 eigenvalues not converged
     c_bands:  1 eigenvalues not converged
     c_bands:  1 eigenvalues not converged
     c_bands:  1 eigenvalues not converged
     c_bands:  1 eigenvalues not converged
     c_bands:  1 eigenvalues not converged
     c_bands:  1 eigenvalues not converged
     c_bands:  1 eigenvalues not converged
     c_bands:  1 eigenvalues not converged
     c_bands:  1 eigenvalues not converged
     c_bands:  1 eigenvalues not converged
     c_bands:  1 eigenvalues not converged
     c_bands:  1 eigenvalues not converged
     c_bands:  1 eigenvalues not converged
     c_bands:  1 eigenvalues not converged
     c_bands:  1 eigenvalues not converged
     ethr =  7.18E-05,  avg # of iterations = 16.1

     add environment contribution to local potential

     total cpu time spent up to now is       92.7 secs

     total energy              =    -300.70939457 Ry
     estimated scf accuracy    <       0.03884877 Ry
     electrostatic embedding   =      -0.02597648 Ry
     cavitation energy         =       0.01534486 Ry
     electrolyte free energy   =      -0.00122260 Ry
     correction to one-el term =      -3.82843466 Ry

     iteration #  8     ecut=    80.00 Ry     beta= 0.20
     Davidson diagonalization with overlap

---- Real-time Memory Report at c_bands before calling an iterative solver
           597 MiB given to the printing process from OS
             0 MiB allocation reported by mallinfo(arena+hblkhd)
        616756 MiB available memory on the node where the printing process lives
------------------
     ethr =  6.47E-05,  avg # of iterations =  1.7

     negative rho (up, down):  2.607E-08 0.000E+00

     add environment contribution to local potential

     total cpu time spent up to now is      101.1 secs

     total energy              =    -300.73275941 Ry
     estimated scf accuracy    <       0.06375140 Ry
     electrostatic embedding   =      -0.02505986 Ry
     cavitation energy         =       0.01534486 Ry
     electrolyte free energy   =      -0.00109746 Ry
     correction to one-el term =      -3.51943272 Ry

     iteration #  9     ecut=    80.00 Ry     beta= 0.20
     Davidson diagonalization with overlap

---- Real-time Memory Report at c_bands before calling an iterative solver
           604 MiB given to the printing process from OS
             0 MiB allocation reported by mallinfo(arena+hblkhd)
        616654 MiB available memory on the node where the printing process lives
------------------
     ethr =  6.47E-05,  avg # of iterations =  4.0

     total cpu time spent up to now is      108.5 secs

     total energy              =    -300.70553578 Ry
     estimated scf accuracy    <       0.25165550 Ry
     electrostatic embedding   =      -0.02480562 Ry
     cavitation energy         =       0.01534486 Ry
     electrolyte free energy   =      -0.00222054 Ry
     correction to one-el term =      -3.20010061 Ry

     iteration # 10     ecut=    80.00 Ry     beta= 0.20
     Davidson diagonalization with overlap

---- Real-time Memory Report at c_bands before calling an iterative solver
           610 MiB given to the printing process from OS
             0 MiB allocation reported by mallinfo(arena+hblkhd)
        616573 MiB available memory on the node where the printing process lives
------------------
     ethr =  6.47E-05,  avg # of iterations =  3.0

     add environment contribution to local potential

     total cpu time spent up to now is      117.2 secs

     total energy              =    -300.71745785 Ry
     estimated scf accuracy    <       0.06291453 Ry
     electrostatic embedding   =      -0.02245883 Ry
     cavitation energy         =       0.01534486 Ry
     electrolyte free energy   =      -0.00222054 Ry
     correction to one-el term =      -3.20479420 Ry

     iteration # 11     ecut=    80.00 Ry     beta= 0.20
     Davidson diagonalization with overlap

---- Real-time Memory Report at c_bands before calling an iterative solver
           616 MiB given to the printing process from OS
             0 MiB allocation reported by mallinfo(arena+hblkhd)
        616451 MiB available memory on the node where the printing process lives
------------------
     ethr =  6.47E-05,  avg # of iterations =  3.8

     negative rho (up, down):  1.275E-02 0.000E+00

     total cpu time spent up to now is      124.5 secs

     total energy              =    -300.73827784 Ry
     estimated scf accuracy    <       0.15292480 Ry
     electrostatic embedding   =      -0.02237973 Ry
     cavitation energy         =       0.01534486 Ry
     electrolyte free energy   =      -0.00191030 Ry
     correction to one-el term =      -2.71831178 Ry

     iteration # 12     ecut=    80.00 Ry     beta= 0.20
     Davidson diagonalization with overlap

---- Real-time Memory Report at c_bands before calling an iterative solver
           621 MiB given to the printing process from OS
             0 MiB allocation reported by mallinfo(arena+hblkhd)
        616392 MiB available memory on the node where the printing process lives
------------------
     ethr =  6.47E-05,  avg # of iterations =  7.7

     negative rho (up, down):  3.164E-02 0.000E+00

     total cpu time spent up to now is      132.8 secs

     total energy              =    -300.73161998 Ry
     estimated scf accuracy    <       0.42683208 Ry
     electrostatic embedding   =      -0.02071538 Ry
     cavitation energy         =       0.01534486 Ry
     electrolyte free energy   =      -0.00191030 Ry
     correction to one-el term =      -2.72164049 Ry

     iteration # 13     ecut=    80.00 Ry     beta= 0.20
     Davidson diagonalization with overlap

---- Real-time Memory Report at c_bands before calling an iterative solver
           625 MiB given to the printing process from OS
             0 MiB allocation reported by mallinfo(arena+hblkhd)
        616348 MiB available memory on the node where the printing process lives
------------------
     ethr =  6.47E-05,  avg # of iterations =  2.1

     negative rho (up, down):  3.501E-02 0.000E+00

     total cpu time spent up to now is      139.3 secs

     total energy              =    -300.73089824 Ry
     estimated scf accuracy    <       0.27969082 Ry
     electrostatic embedding   =      -0.01973700 Ry
     cavitation energy         =       0.01534486 Ry
     electrolyte free energy   =      -0.00191030 Ry
     correction to one-el term =      -2.72359724 Ry

     iteration # 14     ecut=    80.00 Ry     beta= 0.20
     Davidson diagonalization with overlap

---- Real-time Memory Report at c_bands before calling an iterative solver
           630 MiB given to the printing process from OS
             0 MiB allocation reported by mallinfo(arena+hblkhd)
        616292 MiB available memory on the node where the printing process lives
------------------
     ethr =  6.47E-05,  avg # of iterations =  1.0

     negative rho (up, down):  3.604E-02 0.000E+00

     total cpu time spent up to now is      145.5 secs

     total energy              =    -300.70076519 Ry
     estimated scf accuracy    <       0.24916378 Ry
     electrostatic embedding   =      -0.01968424 Ry
     cavitation energy         =       0.01534486 Ry
     electrolyte free energy   =      -0.00191030 Ry
     correction to one-el term =      -2.72370277 Ry

     iteration # 15     ecut=    80.00 Ry     beta= 0.20
     Davidson diagonalization with overlap

---- Real-time Memory Report at c_bands before calling an iterative solver
           633 MiB given to the printing process from OS
             0 MiB allocation reported by mallinfo(arena+hblkhd)
        616256 MiB available memory on the node where the printing process lives
------------------
     c_bands:  2 eigenvalues not converged
     c_bands:  2 eigenvalues not converged
     c_bands:  1 eigenvalues not converged
     c_bands:  1 eigenvalues not converged
     c_bands:  2 eigenvalues not converged
     c_bands:  1 eigenvalues not converged
     ethr =  6.47E-05,  avg # of iterations = 13.0

     negative rho (up, down):  4.621E-02 0.000E+00

     add environment contribution to local potential

     total cpu time spent up to now is      159.2 secs

     total energy              =    -300.71216251 Ry
     estimated scf accuracy    <       0.01293037 Ry
     electrostatic embedding   =      -0.01838584 Ry
     cavitation energy         =       0.01534486 Ry
     electrolyte free energy   =      -0.00191030 Ry
     correction to one-el term =      -2.72629957 Ry

     iteration # 16     ecut=    80.00 Ry     beta= 0.20
     Davidson diagonalization with overlap

---- Real-time Memory Report at c_bands before calling an iterative solver
           637 MiB given to the printing process from OS
             0 MiB allocation reported by mallinfo(arena+hblkhd)
        616197 MiB available memory on the node where the printing process lives
------------------
     c_bands:  1 eigenvalues not converged
     c_bands:  2 eigenvalues not converged
     c_bands:  1 eigenvalues not converged
     c_bands:  1 eigenvalues not converged
     c_bands:  1 eigenvalues not converged
     c_bands:  1 eigenvalues not converged
     ethr =  2.16E-05,  avg # of iterations = 11.0

     negative rho (up, down):  4.498E-02 0.000E+00

     add environment contribution to local potential

     total cpu time spent up to now is      172.0 secs

     total energy              =    -300.71555357 Ry
     estimated scf accuracy    <       0.01603929 Ry
     electrostatic embedding   =      -0.01799815 Ry
     cavitation energy         =       0.01534486 Ry
     electrolyte free energy   =      -0.00111330 Ry
     correction to one-el term =      -0.25048679 Ry

     iteration # 17     ecut=    80.00 Ry     beta= 0.20
     Davidson diagonalization with overlap

---- Real-time Memory Report at c_bands before calling an iterative solver
           640 MiB given to the printing process from OS
             0 MiB allocation reported by mallinfo(arena+hblkhd)
        616105 MiB available memory on the node where the printing process lives
------------------
     ethr =  2.16E-05,  avg # of iterations =  1.3

     negative rho (up, down):  4.253E-02 0.000E+00

     add environment contribution to local potential

     total cpu time spent up to now is      180.2 secs

     total energy              =    -300.71156972 Ry
     estimated scf accuracy    <       0.02777339 Ry
     electrostatic embedding   =      -0.01861651 Ry
     cavitation energy         =       0.01534486 Ry
     electrolyte free energy   =      -0.00133206 Ry
     correction to one-el term =      -0.62075919 Ry

     iteration # 18     ecut=    80.00 Ry     beta= 0.20
     Davidson diagonalization with overlap

---- Real-time Memory Report at c_bands before calling an iterative solver
           643 MiB given to the printing process from OS
             0 MiB allocation reported by mallinfo(arena+hblkhd)
        616055 MiB available memory on the node where the printing process lives
------------------
     ethr =  2.16E-05,  avg # of iterations =  1.0

     negative rho (up, down):  4.336E-02 0.000E+00

     add environment contribution to local potential

     total cpu time spent up to now is      188.6 secs

     total energy              =    -300.71538073 Ry
     estimated scf accuracy    <       0.01457800 Ry
     electrostatic embedding   =      -0.01813822 Ry
     cavitation energy         =       0.01534486 Ry
     electrolyte free energy   =      -0.00105765 Ry
     correction to one-el term =      -0.27938592 Ry

     iteration # 19     ecut=    80.00 Ry     beta= 0.20
     Davidson diagonalization with overlap

---- Real-time Memory Report at c_bands before calling an iterative solver
           645 MiB given to the printing process from OS
             0 MiB allocation reported by mallinfo(arena+hblkhd)
        615793 MiB available memory on the node where the printing process lives
------------------
     ethr =  2.16E-05,  avg # of iterations =  1.5

     negative rho (up, down):  4.167E-02 0.000E+00

     add environment contribution to local potential

     total cpu time spent up to now is      196.9 secs

     total energy              =    -300.71044093 Ry
     estimated scf accuracy    <       0.02205374 Ry
     electrostatic embedding   =      -0.01842585 Ry
     cavitation energy         =       0.01534486 Ry
     electrolyte free energy   =      -0.00125071 Ry
     correction to one-el term =      -0.65247272 Ry

     iteration # 20     ecut=    80.00 Ry     beta= 0.20
     Davidson diagonalization with overlap

---- Real-time Memory Report at c_bands before calling an iterative solver
           648 MiB given to the printing process from OS
             0 MiB allocation reported by mallinfo(arena+hblkhd)
        615729 MiB available memory on the node where the printing process lives
------------------
     ethr =  2.16E-05,  avg # of iterations =  5.6

     negative rho (up, down):  3.583E-02 0.000E+00

     add environment contribution to local potential

     total cpu time spent up to now is      206.4 secs

     total energy              =    -300.71202181 Ry
     estimated scf accuracy    <       0.00696307 Ry
     electrostatic embedding   =      -0.01820954 Ry
     cavitation energy         =       0.01534486 Ry
     electrolyte free energy   =      -0.00096635 Ry
     correction to one-el term =       0.23846874 Ry

     iteration # 21     ecut=    80.00 Ry     beta= 0.20
     Davidson diagonalization with overlap

---- Real-time Memory Report at c_bands before calling an iterative solver
           650 MiB given to the printing process from OS
             0 MiB allocation reported by mallinfo(arena+hblkhd)
        615699 MiB available memory on the node where the printing process lives
------------------
     ethr =  1.16E-05,  avg # of iterations =  6.6

     negative rho (up, down):  3.241E-02 0.000E+00

     add environment contribution to local potential

     total cpu time spent up to now is      216.7 secs

     total energy              =    -300.71275163 Ry
     estimated scf accuracy    <       0.00355432 Ry
     electrostatic embedding   =      -0.01833902 Ry
     cavitation energy         =       0.01534486 Ry
     electrolyte free energy   =      -0.00091714 Ry
     correction to one-el term =       0.85512758 Ry

     iteration # 22     ecut=    80.00 Ry     beta= 0.20
     Davidson diagonalization with overlap

---- Real-time Memory Report at c_bands before calling an iterative solver
           652 MiB given to the printing process from OS
             0 MiB allocation reported by mallinfo(arena+hblkhd)
        615675 MiB available memory on the node where the printing process lives
------------------
     ethr =  5.92E-06,  avg # of iterations =  2.7

     negative rho (up, down):  3.482E-02 0.000E+00

     add environment contribution to local potential

     total cpu time spent up to now is      225.3 secs

     total energy              =    -300.71269976 Ry
     estimated scf accuracy    <       0.00194184 Ry
     electrostatic embedding   =      -0.01870703 Ry
     cavitation energy         =       0.01534486 Ry
     electrolyte free energy   =      -0.00085672 Ry
     correction to one-el term =       1.19986218 Ry

     iteration # 23     ecut=    80.00 Ry     beta= 0.20
     Davidson diagonalization with overlap

---- Real-time Memory Report at c_bands before calling an iterative solver
           654 MiB given to the printing process from OS
             0 MiB allocation reported by mallinfo(arena+hblkhd)
        615643 MiB available memory on the node where the printing process lives
------------------
     c_bands:  1 eigenvalues not converged
     c_bands:  1 eigenvalues not converged
     c_bands:  1 eigenvalues not converged
     c_bands:  1 eigenvalues not converged
     c_bands:  1 eigenvalues not converged
     c_bands:  1 eigenvalues not converged
     ethr =  3.24E-06,  avg # of iterations = 11.5

     negative rho (up, down):  2.100E-02 0.000E+00

     add environment contribution to local potential

     total cpu time spent up to now is      238.7 secs

     total energy              =    -300.71281028 Ry
     estimated scf accuracy    <       0.00185937 Ry
     electrostatic embedding   =      -0.01979250 Ry
     cavitation energy         =       0.01534486 Ry
     electrolyte free energy   =      -0.00076270 Ry
     correction to one-el term =       2.34560602 Ry

     iteration # 24     ecut=    80.00 Ry     beta= 0.20
     Davidson diagonalization with overlap

---- Real-time Memory Report at c_bands before calling an iterative solver
           656 MiB given to the printing process from OS
             0 MiB allocation reported by mallinfo(arena+hblkhd)
        615617 MiB available memory on the node where the printing process lives
------------------
     c_bands:  1 eigenvalues not converged
     c_bands:  1 eigenvalues not converged
     c_bands:  1 eigenvalues not converged
     c_bands:  1 eigenvalues not converged
     c_bands:  1 eigenvalues not converged
     c_bands:  1 eigenvalues not converged
     c_bands:  1 eigenvalues not converged
     ethr =  3.10E-06,  avg # of iterations = 12.0

     negative rho (up, down):  1.025E-02 0.000E+00

     add environment contribution to local potential

     total cpu time spent up to now is      250.9 secs

     total energy              =    -300.71333050 Ry
     estimated scf accuracy    <       0.00034161 Ry
     electrostatic embedding   =      -0.01932862 Ry
     cavitation energy         =       0.01534486 Ry
     electrolyte free energy   =      -0.00085452 Ry
     correction to one-el term =       2.28593548 Ry

     iteration # 25     ecut=    80.00 Ry     beta= 0.20
     Davidson diagonalization with overlap

---- Real-time Memory Report at c_bands before calling an iterative solver
           658 MiB given to the printing process from OS
             0 MiB allocation reported by mallinfo(arena+hblkhd)
        615582 MiB available memory on the node where the printing process lives
------------------
     c_bands:  1 eigenvalues not converged
     c_bands:  1 eigenvalues not converged
     c_bands:  1 eigenvalues not converged
     c_bands:  1 eigenvalues not converged
     c_bands:  1 eigenvalues not converged
     c_bands:  1 eigenvalues not converged
     c_bands:  1 eigenvalues not converged
     c_bands:  1 eigenvalues not converged
     ethr =  5.69E-07,  avg # of iterations = 10.3

     negative rho (up, down):  9.798E-03 0.000E+00

     add environment contribution to local potential

     total cpu time spent up to now is      262.3 secs

     total energy              =    -300.71333155 Ry
     estimated scf accuracy    <       0.00043438 Ry
     electrostatic embedding   =      -0.01970172 Ry
     cavitation energy         =       0.01534486 Ry
     electrolyte free energy   =      -0.00084877 Ry
     correction to one-el term =       2.28440131 Ry

     iteration # 26     ecut=    80.00 Ry     beta= 0.20
     Davidson diagonalization with overlap

---- Real-time Memory Report at c_bands before calling an iterative solver
           659 MiB given to the printing process from OS
             0 MiB allocation reported by mallinfo(arena+hblkhd)
        615559 MiB available memory on the node where the printing process lives
------------------
     c_bands:  1 eigenvalues not converged
     ethr =  5.69E-07,  avg # of iterations =  6.0

     negative rho (up, down):  6.027E-03 0.000E+00

     add environment contribution to local potential

     total cpu time spent up to now is      272.1 secs

     total energy              =    -300.71341960 Ry
     estimated scf accuracy    <       0.00025202 Ry
     electrostatic embedding   =      -0.01981430 Ry
     cavitation energy         =       0.01534486 Ry
     electrolyte free energy   =      -0.00081776 Ry
     correction to one-el term =       2.67413814 Ry

     iteration # 27     ecut=    80.00 Ry     beta= 0.20
     Davidson diagonalization with overlap

---- Real-time Memory Report at c_bands before calling an iterative solver
           660 MiB given to the printing process from OS
             0 MiB allocation reported by mallinfo(arena+hblkhd)
        615525 MiB available memory on the node where the printing process lives
------------------
     c_bands:  1 eigenvalues not converged
     c_bands:  1 eigenvalues not converged
     c_bands:  1 eigenvalues not converged
     c_bands:  2 eigenvalues not converged
     c_bands:  1 eigenvalues not converged
     ethr =  4.20E-07,  avg # of iterations =  9.2

     negative rho (up, down):  3.438E-03 0.000E+00

     add environment contribution to local potential

     total cpu time spent up to now is      282.8 secs

     total energy              =    -300.71343779 Ry
     estimated scf accuracy    <       0.00007188 Ry
     electrostatic embedding   =      -0.01972788 Ry
     cavitation energy         =       0.01534486 Ry
     electrolyte free energy   =      -0.00081838 Ry
     correction to one-el term =       2.49735565 Ry

     iteration # 28     ecut=    80.00 Ry     beta= 0.20
     Davidson diagonalization with overlap

---- Real-time Memory Report at c_bands before calling an iterative solver
           661 MiB given to the printing process from OS
             0 MiB allocation reported by mallinfo(arena+hblkhd)
        615503 MiB available memory on the node where the printing process lives
------------------
     c_bands:  1 eigenvalues not converged
     c_bands:  1 eigenvalues not converged
     c_bands:  1 eigenvalues not converged
     c_bands:  1 eigenvalues not converged
     c_bands:  1 eigenvalues not converged
     c_bands:  1 eigenvalues not converged
     c_bands:  2 eigenvalues not converged
     ethr =  1.20E-07,  avg # of iterations = 10.0

     negative rho (up, down):  2.355E-03 0.000E+00

     add environment contribution to local potential

     total cpu time spent up to now is      293.7 secs

     total energy              =    -300.71350426 Ry
     estimated scf accuracy    <       0.00005466 Ry
     electrostatic embedding   =      -0.01953025 Ry
     cavitation energy         =       0.01534486 Ry
     electrolyte free energy   =      -0.00083038 Ry
     correction to one-el term =       2.49715171 Ry

     iteration # 29     ecut=    80.00 Ry     beta= 0.20
     Davidson diagonalization with overlap

---- Real-time Memory Report at c_bands before calling an iterative solver
           663 MiB given to the printing process from OS
             0 MiB allocation reported by mallinfo(arena+hblkhd)
        615485 MiB available memory on the node where the printing process lives
------------------
     c_bands:  1 eigenvalues not converged
     c_bands:  1 eigenvalues not converged
     c_bands:  1 eigenvalues not converged
     c_bands:  1 eigenvalues not converged
     c_bands:  1 eigenvalues not converged
     c_bands:  1 eigenvalues not converged
     c_bands:  1 eigenvalues not converged
     c_bands:  1 eigenvalues not converged
     c_bands:  1 eigenvalues not converged
     c_bands:  1 eigenvalues not converged
     c_bands:  1 eigenvalues not converged
     c_bands:  1 eigenvalues not converged
     c_bands:  1 eigenvalues not converged
     ethr =  9.11E-08,  avg # of iterations = 12.9

     negative rho (up, down):  2.386E-03 0.000E+00

     add environment contribution to local potential

     total cpu time spent up to now is      306.4 secs

     total energy              =    -300.71353742 Ry
     estimated scf accuracy    <       0.00002991 Ry
     electrostatic embedding   =      -0.01920966 Ry
     cavitation energy         =       0.01534486 Ry
     electrolyte free energy   =      -0.00080385 Ry
     correction to one-el term =       2.79410584 Ry

     iteration # 30     ecut=    80.00 Ry     beta= 0.20
     Davidson diagonalization with overlap

---- Real-time Memory Report at c_bands before calling an iterative solver
           664 MiB given to the printing process from OS
             0 MiB allocation reported by mallinfo(arena+hblkhd)
        615469 MiB available memory on the node where the printing process lives
------------------
     c_bands:  1 eigenvalues not converged
     c_bands:  1 eigenvalues not converged
     c_bands:  1 eigenvalues not converged
     ethr =  4.99E-08,  avg # of iterations =  7.2

     negative rho (up, down):  7.819E-04 0.000E+00

     add environment contribution to local potential

     total cpu time spent up to now is      316.4 secs

     total energy              =    -300.71353410 Ry
     estimated scf accuracy    <       0.00000620 Ry
     electrostatic embedding   =      -0.01910261 Ry
     cavitation energy         =       0.01534486 Ry
     electrolyte free energy   =      -0.00080371 Ry
     correction to one-el term =       2.79493659 Ry

     iteration # 31     ecut=    80.00 Ry     beta= 0.20
     Davidson diagonalization with overlap

---- Real-time Memory Report at c_bands before calling an iterative solver
           665 MiB given to the printing process from OS
             0 MiB allocation reported by mallinfo(arena+hblkhd)
        615457 MiB available memory on the node where the printing process lives
------------------
     c_bands:  1 eigenvalues not converged
     c_bands:  1 eigenvalues not converged
     c_bands:  1 eigenvalues not converged
     c_bands:  1 eigenvalues not converged
     c_bands:  1 eigenvalues not converged
     c_bands:  1 eigenvalues not converged
     c_bands:  2 eigenvalues not converged
     ethr =  1.03E-08,  avg # of iterations =  8.6

     negative rho (up, down):  4.279E-04 0.000E+00

     add environment contribution to local potential

     total cpu time spent up to now is      328.5 secs

     total energy              =    -300.71353447 Ry
     estimated scf accuracy    <       0.00000349 Ry
     electrostatic embedding   =      -0.01893655 Ry
     cavitation energy         =       0.01534486 Ry
     electrolyte free energy   =      -0.00080399 Ry
     correction to one-el term =       2.82732520 Ry

     iteration # 32     ecut=    80.00 Ry     beta= 0.20
     Davidson diagonalization with overlap

---- Real-time Memory Report at c_bands before calling an iterative solver
           667 MiB given to the printing process from OS
             0 MiB allocation reported by mallinfo(arena+hblkhd)
        615452 MiB available memory on the node where the printing process lives
------------------
     c_bands:  1 eigenvalues not converged
     ethr =  5.82E-09,  avg # of iterations =  4.2

     negative rho (up, down):  4.098E-04 0.000E+00

     add environment contribution to local potential

     total cpu time spent up to now is      338.1 secs

     total energy              =    -300.71353560 Ry
     estimated scf accuracy    <       0.00000079 Ry
     electrostatic embedding   =      -0.01886015 Ry
     cavitation energy         =       0.01534486 Ry
     electrolyte free energy   =      -0.00079838 Ry
     correction to one-el term =       2.82452369 Ry

     iteration # 33     ecut=    80.00 Ry     beta= 0.20
     Davidson diagonalization with overlap

---- Real-time Memory Report at c_bands before calling an iterative solver
           668 MiB given to the printing process from OS
             0 MiB allocation reported by mallinfo(arena+hblkhd)
        615427 MiB available memory on the node where the printing process lives
------------------
     ethr =  1.32E-09,  avg # of iterations =  4.3

     negative rho (up, down):  3.637E-04 0.000E+00

     add environment contribution to local potential

     total cpu time spent up to now is      348.0 secs

     total energy              =    -300.71353660 Ry
     estimated scf accuracy    <       0.00000056 Ry
     electrostatic embedding   =      -0.01883220 Ry
     cavitation energy         =       0.01534486 Ry
     electrolyte free energy   =      -0.00079821 Ry
     correction to one-el term =       2.82815971 Ry

     iteration # 34     ecut=    80.00 Ry     beta= 0.20
     Davidson diagonalization with overlap

---- Real-time Memory Report at c_bands before calling an iterative solver
           669 MiB given to the printing process from OS
             0 MiB allocation reported by mallinfo(arena+hblkhd)
        615424 MiB available memory on the node where the printing process lives
------------------
     ethr =  9.30E-10,  avg # of iterations =  2.2

     negative rho (up, down):  3.721E-04 0.000E+00

     add environment contribution to local potential

     total cpu time spent up to now is      356.6 secs

     total energy              =    -300.71353702 Ry
     estimated scf accuracy    <       0.00000032 Ry
     electrostatic embedding   =      -0.01882429 Ry
     cavitation energy         =       0.01534486 Ry
     electrolyte free energy   =      -0.00079898 Ry
     correction to one-el term =       2.83242637 Ry

     iteration # 35     ecut=    80.00 Ry     beta= 0.20
     Davidson diagonalization with overlap

---- Real-time Memory Report at c_bands before calling an iterative solver
           671 MiB given to the printing process from OS
             0 MiB allocation reported by mallinfo(arena+hblkhd)
        615416 MiB available memory on the node where the printing process lives
------------------
     ethr =  5.38E-10,  avg # of iterations =  2.2

     negative rho (up, down):  3.029E-04 0.000E+00

     add environment contribution to local potential

     total cpu time spent up to now is      365.3 secs

     total energy              =    -300.71353750 Ry
     estimated scf accuracy    <       0.00000022 Ry
     electrostatic embedding   =      -0.01881408 Ry
     cavitation energy         =       0.01534486 Ry
     electrolyte free energy   =      -0.00079804 Ry
     correction to one-el term =       2.83284011 Ry

     iteration # 36     ecut=    80.00 Ry     beta= 0.20
     Davidson diagonalization with overlap

---- Real-time Memory Report at c_bands before calling an iterative solver
           672 MiB given to the printing process from OS
             0 MiB allocation reported by mallinfo(arena+hblkhd)
        615395 MiB available memory on the node where the printing process lives
------------------
     ethr =  3.64E-10,  avg # of iterations =  2.9

     negative rho (up, down):  3.109E-04 0.000E+00

     add environment contribution to local potential

     total cpu time spent up to now is      374.4 secs

     total energy              =    -300.71353761 Ry
     estimated scf accuracy    <       0.00000011 Ry
     electrostatic embedding   =      -0.01880658 Ry
     cavitation energy         =       0.01534486 Ry
     electrolyte free energy   =      -0.00079841 Ry
     correction to one-el term =       2.82764240 Ry

     iteration # 37     ecut=    80.00 Ry     beta= 0.20
     Davidson diagonalization with overlap

---- Real-time Memory Report at c_bands before calling an iterative solver
           673 MiB given to the printing process from OS
             0 MiB allocation reported by mallinfo(arena+hblkhd)
        615392 MiB available memory on the node where the printing process lives
------------------
     ethr =  1.83E-10,  avg # of iterations =  4.0

     negative rho (up, down):  2.897E-04 0.000E+00

     add environment contribution to local potential

     total cpu time spent up to now is      383.8 secs

     total energy              =    -300.71353766 Ry
     estimated scf accuracy    <       0.00000006 Ry
     electrostatic embedding   =      -0.01878427 Ry
     cavitation energy         =       0.01534486 Ry
     electrolyte free energy   =      -0.00079789 Ry
     correction to one-el term =       2.82003876 Ry

     iteration # 38     ecut=    80.00 Ry     beta= 0.20
     Davidson diagonalization with overlap

---- Real-time Memory Report at c_bands before calling an iterative solver
           673 MiB given to the printing process from OS
             0 MiB allocation reported by mallinfo(arena+hblkhd)
        615378 MiB available memory on the node where the printing process lives
------------------
     ethr =  9.31E-11,  avg # of iterations =  2.8

     negative rho (up, down):  2.960E-04 0.000E+00

     add environment contribution to local potential

     total cpu time spent up to now is      393.0 secs

     total energy              =    -300.71353763 Ry
     estimated scf accuracy    <       0.00000004 Ry
     electrostatic embedding   =      -0.01877247 Ry
     cavitation energy         =       0.01534486 Ry
     electrolyte free energy   =      -0.00079727 Ry
     correction to one-el term =       2.81928271 Ry

     iteration # 39     ecut=    80.00 Ry     beta= 0.20
     Davidson diagonalization with overlap

---- Real-time Memory Report at c_bands before calling an iterative solver
           675 MiB given to the printing process from OS
             0 MiB allocation reported by mallinfo(arena+hblkhd)
        615359 MiB available memory on the node where the printing process lives
------------------
     ethr =  7.18E-11,  avg # of iterations =  3.4

     negative rho (up, down):  2.857E-04 0.000E+00

     add environment contribution to local potential

     total cpu time spent up to now is      402.3 secs

     total energy              =    -300.71353764 Ry
     estimated scf accuracy    <       0.00000002 Ry
     electrostatic embedding   =      -0.01877023 Ry
     cavitation energy         =       0.01534486 Ry
     electrolyte free energy   =      -0.00079707 Ry
     correction to one-el term =       2.82100208 Ry

     iteration # 40     ecut=    80.00 Ry     beta= 0.20
     Davidson diagonalization with overlap

---- Real-time Memory Report at c_bands before calling an iterative solver
           676 MiB given to the printing process from OS
             0 MiB allocation reported by mallinfo(arena+hblkhd)
        615337 MiB available memory on the node where the printing process lives
------------------
     ethr =  2.82E-11,  avg # of iterations =  3.5

     negative rho (up, down):  2.683E-04 0.000E+00

     add environment contribution to local potential

     total cpu time spent up to now is      411.3 secs

     total energy              =    -300.71353763 Ry
     estimated scf accuracy    <       0.00000001 Ry
     electrostatic embedding   =      -0.01876780 Ry
     cavitation energy         =       0.01534486 Ry
     electrolyte free energy   =      -0.00079699 Ry
     correction to one-el term =       2.82120221 Ry

     iteration # 41     ecut=    80.00 Ry     beta= 0.20
     Davidson diagonalization with overlap

---- Real-time Memory Report at c_bands before calling an iterative solver
           677 MiB given to the printing process from OS
             0 MiB allocation reported by mallinfo(arena+hblkhd)
        615321 MiB available memory on the node where the printing process lives
------------------
     ethr =  2.46E-11,  avg # of iterations =  2.2

     negative rho (up, down):  2.626E-04 0.000E+00

     add environment contribution to local potential

     total cpu time spent up to now is      419.8 secs

     total energy              =    -300.71353763 Ry
     estimated scf accuracy    <       0.00000001 Ry
     electrostatic embedding   =      -0.01876800 Ry
     cavitation energy         =       0.01534486 Ry
     electrolyte free energy   =      -0.00079697 Ry
     correction to one-el term =       2.82132084 Ry

     iteration # 42     ecut=    80.00 Ry     beta= 0.20
     Davidson diagonalization with overlap

---- Real-time Memory Report at c_bands before calling an iterative solver
           678 MiB given to the printing process from OS
             0 MiB allocation reported by mallinfo(arena+hblkhd)
        615314 MiB available memory on the node where the printing process lives
------------------
     ethr =  2.05E-11,  avg # of iterations =  2.0

     negative rho (up, down):  2.576E-04 0.000E+00

     add environment contribution to local potential

     total cpu time spent up to now is      428.4 secs

     total energy              =    -300.71353763 Ry
     estimated scf accuracy    <          8.7E-09 Ry
     electrostatic embedding   =      -0.01876938 Ry
     cavitation energy         =       0.01534486 Ry
     electrolyte free energy   =      -0.00079693 Ry
     correction to one-el term =       2.82046739 Ry

     iteration # 43     ecut=    80.00 Ry     beta= 0.20
     Davidson diagonalization with overlap

---- Real-time Memory Report at c_bands before calling an iterative solver
           679 MiB given to the printing process from OS
             0 MiB allocation reported by mallinfo(arena+hblkhd)
        615300 MiB available memory on the node where the printing process lives
------------------
     ethr =  1.46E-11,  avg # of iterations =  2.3

     negative rho (up, down):  2.515E-04 0.000E+00

     add environment contribution to local potential

     total cpu time spent up to now is      437.1 secs

     total energy              =    -300.71353764 Ry
     estimated scf accuracy    <          6.0E-09 Ry
     electrostatic embedding   =      -0.01877483 Ry
     cavitation energy         =       0.01534486 Ry
     electrolyte free energy   =      -0.00079705 Ry
     correction to one-el term =       2.81978175 Ry

     iteration # 44     ecut=    80.00 Ry     beta= 0.20
     Davidson diagonalization with overlap

---- Real-time Memory Report at c_bands before calling an iterative solver
           680 MiB given to the printing process from OS
             0 MiB allocation reported by mallinfo(arena+hblkhd)
        615249 MiB available memory on the node where the printing process lives
------------------
     ethr =  9.97E-12,  avg # of iterations =  3.0

     negative rho (up, down):  2.522E-04 0.000E+00

     add environment contribution to local potential

     total cpu time spent up to now is      446.2 secs

     total energy              =    -300.71353765 Ry
     estimated scf accuracy    <          3.6E-09 Ry
     electrostatic embedding   =      -0.01877940 Ry
     cavitation energy         =       0.01534486 Ry
     electrolyte free energy   =      -0.00079719 Ry
     correction to one-el term =       2.81956905 Ry

     iteration # 45     ecut=    80.00 Ry     beta= 0.20
     Davidson diagonalization with overlap

---- Real-time Memory Report at c_bands before calling an iterative solver
           681 MiB given to the printing process from OS
             0 MiB allocation reported by mallinfo(arena+hblkhd)
        615238 MiB available memory on the node where the printing process lives
------------------
     ethr =  6.01E-12,  avg # of iterations =  2.2

     negative rho (up, down):  2.516E-04 0.000E+00

     add environment contribution to local potential

     total cpu time spent up to now is      454.7 secs

     total energy              =    -300.71353766 Ry
     estimated scf accuracy    <          2.7E-09 Ry
     electrostatic embedding   =      -0.01877924 Ry
     cavitation energy         =       0.01534486 Ry
     electrolyte free energy   =      -0.00079725 Ry
     correction to one-el term =       2.81968711 Ry

     iteration # 46     ecut=    80.00 Ry     beta= 0.20
     Davidson diagonalization with overlap

---- Real-time Memory Report at c_bands before calling an iterative solver
           682 MiB given to the printing process from OS
             0 MiB allocation reported by mallinfo(arena+hblkhd)
        615231 MiB available memory on the node where the printing process lives
------------------
     ethr =  4.44E-12,  avg # of iterations =  3.2

     negative rho (up, down):  2.503E-04 0.000E+00

     add environment contribution to local potential

     total cpu time spent up to now is      463.9 secs

     total energy              =    -300.71353765 Ry
     estimated scf accuracy    <          1.8E-09 Ry
     electrostatic embedding   =      -0.01877895 Ry
     cavitation energy         =       0.01534486 Ry
     electrolyte free energy   =      -0.00079731 Ry
     correction to one-el term =       2.82003159 Ry

     iteration # 47     ecut=    80.00 Ry     beta= 0.20
     Davidson diagonalization with overlap

---- Real-time Memory Report at c_bands before calling an iterative solver
           683 MiB given to the printing process from OS
             0 MiB allocation reported by mallinfo(arena+hblkhd)
        615222 MiB available memory on the node where the printing process lives
------------------
     ethr =  3.06E-12,  avg # of iterations =  2.0

     negative rho (up, down):  2.491E-04 0.000E+00

     add environment contribution to local potential

     total cpu time spent up to now is      472.3 secs

     total energy              =    -300.71353764 Ry
     estimated scf accuracy    <          1.6E-09 Ry
     electrostatic embedding   =      -0.01877905 Ry
     cavitation energy         =       0.01534486 Ry
     electrolyte free energy   =      -0.00079731 Ry
     correction to one-el term =       2.82010600 Ry

     iteration # 48     ecut=    80.00 Ry     beta= 0.20
     Davidson diagonalization with overlap

---- Real-time Memory Report at c_bands before calling an iterative solver
           684 MiB given to the printing process from OS
             0 MiB allocation reported by mallinfo(arena+hblkhd)
        615218 MiB available memory on the node where the printing process lives
------------------
     ethr =  2.70E-12,  avg # of iterations =  2.0

     negative rho (up, down):  2.493E-04 0.000E+00

     add environment contribution to local potential

     total cpu time spent up to now is      480.5 secs

     total energy              =    -300.71353765 Ry
     estimated scf accuracy    <          1.2E-09 Ry
     electrostatic embedding   =      -0.01877852 Ry
     cavitation energy         =       0.01534486 Ry
     electrolyte free energy   =      -0.00079726 Ry
     correction to one-el term =       2.81991483 Ry

     iteration # 49     ecut=    80.00 Ry     beta= 0.20
     Davidson diagonalization with overlap

---- Real-time Memory Report at c_bands before calling an iterative solver
           685 MiB given to the printing process from OS
             0 MiB allocation reported by mallinfo(arena+hblkhd)
        615213 MiB available memory on the node where the printing process lives
------------------
     ethr =  1.97E-12,  avg # of iterations =  1.2

     negative rho (up, down):  2.452E-04 0.000E+00

     add environment contribution to local potential

     total cpu time spent up to now is      488.7 secs

     total energy              =    -300.71353765 Ry
     estimated scf accuracy    <          9.5E-10 Ry
     electrostatic embedding   =      -0.01877852 Ry
     cavitation energy         =       0.01534486 Ry
     electrolyte free energy   =      -0.00079728 Ry
     correction to one-el term =       2.81950020 Ry

     iteration # 50     ecut=    80.00 Ry     beta= 0.20
     Davidson diagonalization with overlap

---- Real-time Memory Report at c_bands before calling an iterative solver
           686 MiB given to the printing process from OS
             0 MiB allocation reported by mallinfo(arena+hblkhd)
        615191 MiB available memory on the node where the printing process lives
------------------
     ethr =  1.59E-12,  avg # of iterations =  2.5

     negative rho (up, down):  2.421E-04 0.000E+00

     add environment contribution to local potential

     total cpu time spent up to now is      497.5 secs

     total energy              =    -300.71353765 Ry
     estimated scf accuracy    <          5.1E-10 Ry
     electrostatic embedding   =      -0.01877715 Ry
     cavitation energy         =       0.01534486 Ry
     electrolyte free energy   =      -0.00079729 Ry
     correction to one-el term =       2.81903073 Ry

     iteration # 51     ecut=    80.00 Ry     beta= 0.20
     Davidson diagonalization with overlap

---- Real-time Memory Report at c_bands before calling an iterative solver
           687 MiB given to the printing process from OS
             0 MiB allocation reported by mallinfo(arena+hblkhd)
        615189 MiB available memory on the node where the printing process lives
------------------
     ethr =  8.55E-13,  avg # of iterations =  2.0

     negative rho (up, down):  2.418E-04 0.000E+00

     add environment contribution to local potential

     total cpu time spent up to now is      505.9 secs

     total energy              =    -300.71353764 Ry
     estimated scf accuracy    <          4.2E-10 Ry
     electrostatic embedding   =      -0.01877701 Ry
     cavitation energy         =       0.01534486 Ry
     electrolyte free energy   =      -0.00079729 Ry
     correction to one-el term =       2.81879032 Ry

     iteration # 52     ecut=    80.00 Ry     beta= 0.20
     Davidson diagonalization with overlap

---- Real-time Memory Report at c_bands before calling an iterative solver
           688 MiB given to the printing process from OS
             0 MiB allocation reported by mallinfo(arena+hblkhd)
        615182 MiB available memory on the node where the printing process lives
------------------
     ethr =  6.96E-13,  avg # of iterations =  1.1

     negative rho (up, down):  2.426E-04 0.000E+00

     add environment contribution to local potential

     total cpu time spent up to now is      514.0 secs

     total energy              =    -300.71353764 Ry
     estimated scf accuracy    <          4.0E-10 Ry
     electrostatic embedding   =      -0.01877694 Ry
     cavitation energy         =       0.01534486 Ry
     electrolyte free energy   =      -0.00079729 Ry
     correction to one-el term =       2.81875829 Ry

     iteration # 53     ecut=    80.00 Ry     beta= 0.20
     Davidson diagonalization with overlap

---- Real-time Memory Report at c_bands before calling an iterative solver
           689 MiB given to the printing process from OS
             0 MiB allocation reported by mallinfo(arena+hblkhd)
        615165 MiB available memory on the node where the printing process lives
------------------
     ethr =  6.65E-13,  avg # of iterations =  2.2

     negative rho (up, down):  2.432E-04 0.000E+00

     add environment contribution to local potential

     total cpu time spent up to now is      522.4 secs

     total energy              =    -300.71353764 Ry
     estimated scf accuracy    <          3.8E-10 Ry
     electrostatic embedding   =      -0.01877671 Ry
     cavitation energy         =       0.01534486 Ry
     electrolyte free energy   =      -0.00079728 Ry
     correction to one-el term =       2.81874883 Ry

     iteration # 54     ecut=    80.00 Ry     beta= 0.20
     Davidson diagonalization with overlap

---- Real-time Memory Report at c_bands before calling an iterative solver
           690 MiB given to the printing process from OS
             0 MiB allocation reported by mallinfo(arena+hblkhd)
        615161 MiB available memory on the node where the printing process lives
------------------
     ethr =  6.37E-13,  avg # of iterations =  1.7

     negative rho (up, down):  2.437E-04 0.000E+00

     add environment contribution to local potential

     total cpu time spent up to now is      530.6 secs

     total energy              =    -300.71353764 Ry
     estimated scf accuracy    <          3.6E-10 Ry
     electrostatic embedding   =      -0.01877655 Ry
     cavitation energy         =       0.01534486 Ry
     electrolyte free energy   =      -0.00079728 Ry
     correction to one-el term =       2.81874480 Ry

     iteration # 55     ecut=    80.00 Ry     beta= 0.20
     Davidson diagonalization with overlap

---- Real-time Memory Report at c_bands before calling an iterative solver
           691 MiB given to the printing process from OS
             0 MiB allocation reported by mallinfo(arena+hblkhd)
        615147 MiB available memory on the node where the printing process lives
------------------
     ethr =  6.06E-13,  avg # of iterations =  1.0

     negative rho (up, down):  2.442E-04 0.000E+00

     add environment contribution to local potential

     total cpu time spent up to now is      538.5 secs

     total energy              =    -300.71353764 Ry
     estimated scf accuracy    <          3.5E-10 Ry
     electrostatic embedding   =      -0.01877650 Ry
     cavitation energy         =       0.01534486 Ry
     electrolyte free energy   =      -0.00079729 Ry
     correction to one-el term =       2.81878036 Ry

     iteration # 56     ecut=    80.00 Ry     beta= 0.20
     Davidson diagonalization with overlap

---- Real-time Memory Report at c_bands before calling an iterative solver
           692 MiB given to the printing process from OS
             0 MiB allocation reported by mallinfo(arena+hblkhd)
        615145 MiB available memory on the node where the printing process lives
------------------
     ethr =  5.84E-13,  avg # of iterations =  1.1

     negative rho (up, down):  2.455E-04 0.000E+00

     add environment contribution to local potential

     total cpu time spent up to now is      546.4 secs

     total energy              =    -300.71353765 Ry
     estimated scf accuracy    <          3.1E-10 Ry
     electrostatic embedding   =      -0.01877656 Ry
     cavitation energy         =       0.01534486 Ry
     electrolyte free energy   =      -0.00079729 Ry
     correction to one-el term =       2.81878255 Ry

     iteration # 57     ecut=    80.00 Ry     beta= 0.20
     Davidson diagonalization with overlap

---- Real-time Memory Report at c_bands before calling an iterative solver
           693 MiB given to the printing process from OS
             0 MiB allocation reported by mallinfo(arena+hblkhd)
        615139 MiB available memory on the node where the printing process lives
------------------
     ethr =  5.10E-13,  avg # of iterations =  2.5

     negative rho (up, down):  2.451E-04 0.000E+00

     add environment contribution to local potential

     total cpu time spent up to now is      555.1 secs

     total energy              =    -300.71353764 Ry
     estimated scf accuracy    <          2.7E-10 Ry
     electrostatic embedding   =      -0.01877669 Ry
     cavitation energy         =       0.01534486 Ry
     electrolyte free energy   =      -0.00079729 Ry
     correction to one-el term =       2.81873353 Ry

     iteration # 58     ecut=    80.00 Ry     beta= 0.20
     Davidson diagonalization with overlap

---- Real-time Memory Report at c_bands before calling an iterative solver
           694 MiB given to the printing process from OS
             0 MiB allocation reported by mallinfo(arena+hblkhd)
        615134 MiB available memory on the node where the printing process lives
------------------
     ethr =  4.46E-13,  avg # of iterations =  2.1

     negative rho (up, down):  2.450E-04 0.000E+00

     add environment contribution to local potential

     total cpu time spent up to now is      563.4 secs

     total energy              =    -300.71353764 Ry
     estimated scf accuracy    <          2.4E-10 Ry
     electrostatic embedding   =      -0.01877708 Ry
     cavitation energy         =       0.01534486 Ry
     electrolyte free energy   =      -0.00079730 Ry
     correction to one-el term =       2.81860748 Ry

     iteration # 59     ecut=    80.00 Ry     beta= 0.20
     Davidson diagonalization with overlap

---- Real-time Memory Report at c_bands before calling an iterative solver
           695 MiB given to the printing process from OS
             0 MiB allocation reported by mallinfo(arena+hblkhd)
        615114 MiB available memory on the node where the printing process lives
------------------
     ethr =  4.04E-13,  avg # of iterations =  1.1

     negative rho (up, down):  2.436E-04 0.000E+00

     add environment contribution to local potential

     total cpu time spent up to now is      571.5 secs

     total energy              =    -300.71353765 Ry
     estimated scf accuracy    <          2.3E-10 Ry
     electrostatic embedding   =      -0.01877710 Ry
     cavitation energy         =       0.01534486 Ry
[...]
    -0.6517  -0.4521  -0.0135   0.1747   0.2712

     occupation numbers 
     1.0000   1.0000   1.0000   1.0000   1.0000   1.0000   1.0000   1.0000
     1.0000   1.0000   1.0000   1.0000   1.0000   1.0000   1.0000   1.0000
     1.0000   1.0000   1.0000   1.0000   1.0000   1.0000   1.0000   1.0000
     1.0000   1.0000   1.0000   1.0000   1.0002   1.0107   1.0584   0.2158
     0.0000   0.0000   0.0000   0.0000   0.0000   0.0000   0.0000   0.0000
     0.0000   0.0000   0.0000   0.0000   0.0000

          k =-0.5000 0.3689 0.0000 (151783 PWs)   bands (ev):

   -50.0626 -50.0626 -50.0626 -50.0626 -49.5342 -49.5342 -49.5341 -49.5341
   -49.2354 -49.2353 -49.2344 -49.2344 -49.1928 -49.1927 -49.1874 -49.1871
   -49.1640 -49.1639 -49.1638 -49.1637  -5.1801  -4.7067  -4.6789  -4.3947
    -4.1978  -3.8879  -3.8320  -3.6021  -3.3380  -3.0928  -3.0174  -2.7692
    -2.2992  -2.2347  -1.9390  -1.6897  -1.1889  -1.1385  -0.8333  -0.7177
    -0.6515  -0.4513   0.1749   0.1799   0.2189

     occupation numbers 
     1.0000   1.0000   1.0000   1.0000   1.0000   1.0000   1.0000   1.0000
     1.0000   1.0000   1.0000   1.0000   1.0000   1.0000   1.0000   1.0000
     1.0000   1.0000   1.0000   1.0000   1.0000   1.0000   1.0000   1.0000
     1.0000   1.0000   1.0000   1.0000   1.0000   1.0012   1.0108   0.8745
     0.0000   0.0000   0.0000   0.0000   0.0000   0.0000   0.0000   0.0000
     0.0000   0.0000   0.0000   0.0000   0.0000

          k =-0.5000-0.7906 0.0000 (151788 PWs)   bands (ev):

   -50.0626 -50.0626 -50.0626 -50.0626 -49.5342 -49.5342 -49.5341 -49.5341
   -49.2353 -49.2353 -49.2344 -49.2344 -49.1927 -49.1927 -49.1873 -49.1872
   -49.1640 -49.1640 -49.1638 -49.1637  -4.9696  -4.9696  -4.4685  -4.4685
    -4.0197  -4.0197  -3.6454  -3.6454  -3.4780  -3.4780  -2.6838  -2.6838
    -2.5155  -2.5155  -1.6744  -1.6744  -1.3279  -1.3279  -0.6935  -0.6935
    -0.5891  -0.5891   0.1222   0.1223   0.2840

     occupation numbers 
     1.0000   1.0000   1.0000   1.0000   1.0000   1.0000   1.0000   1.0000
     1.0000   1.0000   1.0000   1.0000   1.0000   1.0000   1.0000   1.0000
     1.0000   1.0000   1.0000   1.0000   1.0000   1.0000   1.0000   1.0000
     1.0000   1.0000   1.0000   1.0000   1.0000   1.0000   0.4270   0.4269
     0.0140   0.0140   0.0000   0.0000   0.0000   0.0000   0.0000   0.0000
     0.0000   0.0000   0.0000   0.0000   0.0000

     the Fermi energy is    -2.6787 ev

!    total energy              =    -300.71353764 Ry
     total all-electron energy =      -300.713700 Ry
     estimated scf accuracy    <          8.6E-15 Ry
     smearing contrib. (-TS)   =      -0.00063949 Ry
     internal energy E=F+TS    =    -300.71289816 Ry

     The total energy is F=E-TS. E is the sum of the following terms:
     one-electron contribution =   -3481.77231855 Ry
     hartree contribution      =    1708.34471861 Ry
     xc contribution           =     -71.61752093 Ry
     ewald contribution        =    1539.75337954 Ry
     one-center paw contrib.   =       1.76410605 Ry
      -> PAW hartree energy AE =       7.41797232 Ry
      -> PAW hartree energy PS =      -7.19533020 Ry
      -> PAW xc energy AE      =      -3.48341183 Ry
      -> PAW xc energy PS      =       3.34897442 Ry
      -> total E_H with PAW    =    1708.56736074 Ry
      -> total E_XC with PAW   =     -71.75195833 Ry
     electrostatic embedding   =      -0.01877722 Ry
     cavitation energy         =       0.01534486 Ry
     electrolyte free energy   =      -0.00079731 Ry
     correction to one-el term =       2.81896679 Ry

     WARNING: you are using the parabolic pbc correction;
              the potential shift above must be added to 
              band and Fermi energies.

     convergence has been achieved in  93 iterations
     The dielectric solvent contribution to forces
     atom    1 type  1   force =    -0.00000032   -0.00811175    0.00692445
     atom    2 type  1   force =    -0.00000035    0.00283806    0.00379896
     atom    3 type  1   force =     0.00000009   -0.00064880    0.00137926
     atom    4 type  1   force =     0.00000016   -0.00014634    0.00076099
     atom    5 type  1   force =     0.00000002    0.00014639   -0.00076098
     atom    6 type  1   force =    -0.00000009    0.00064880   -0.00137924
     atom    7 type  1   force =     0.00000032   -0.00283796   -0.00379890
     atom    8 type  1   force =     0.00000036    0.00811176   -0.00692378
     atom    9 type  1   force =     0.00000095   -0.00842937    0.01564039
     atom   10 type  1   force =    -0.00000036    0.00842957   -0.01563969
     atom   11 type  1   force =    -0.00000036   -0.00811176    0.00692381
     atom   12 type  1   force =    -0.00000032    0.00283796    0.00379893
     atom   13 type  1   force =     0.00000007   -0.00064876    0.00137936
     atom   14 type  1   force =    -0.00000002   -0.00014639    0.00076101
     atom   15 type  1   force =    -0.00000016    0.00014634   -0.00076097
     atom   16 type  1   force =    -0.00000007    0.00064876   -0.00137934
     atom   17 type  1   force =     0.00000035   -0.00283806   -0.00379894
     atom   18 type  1   force =     0.00000032    0.00811175   -0.00692443
     atom   19 type  1   force =     0.00000036   -0.00842958    0.01563972
     atom   20 type  1   force =    -0.00000095    0.00842939   -0.01564033
 

     Forces acting on atoms (cartesian axes, Ry/au):

     atom    1 type  1   force =     0.00000038   -0.00000352   -0.00000272
     atom    2 type  1   force =    -0.00000095    0.00000110    0.00000312
     atom    3 type  1   force =     0.00000074    0.00000114    0.00000398
     atom    4 type  1   force =    -0.00000014   -0.00000275   -0.00000011
     atom    5 type  1   force =     0.00000072    0.00000268    0.00000017
     atom    6 type  1   force =    -0.00000071   -0.00000115   -0.00000403
     atom    7 type  1   force =     0.00000109   -0.00000139   -0.00000290
     atom    8 type  1   force =    -0.00000049    0.00000351    0.00000241
     atom    9 type  1   force =    -0.00000033   -0.00000348    0.00000006
     atom   10 type  1   force =     0.00000033    0.00000323   -0.00000016
     atom   11 type  1   force =     0.00000049   -0.00000349   -0.00000240
     atom   12 type  1   force =    -0.00000109    0.00000135    0.00000290
     atom   13 type  1   force =     0.00000024    0.00000107    0.00000353
     atom   14 type  1   force =    -0.00000073   -0.00000267   -0.00000016
     atom   15 type  1   force =     0.00000016    0.00000276    0.00000014
     atom   16 type  1   force =    -0.00000026   -0.00000105   -0.00000352
     atom   17 type  1   force =     0.00000094   -0.00000109   -0.00000312
     atom   18 type  1   force =    -0.00000039    0.00000351    0.00000274
     atom   19 type  1   force =    -0.00000033   -0.00000324    0.00000015
     atom   20 type  1   force =     0.00000035    0.00000349   -0.00000008
     The non-local contrib.  to forces
     atom    1 type  1   force =     0.00002977    0.00372446   -0.03133179
     atom    2 type  1   force =     0.00005035    0.00058997    0.00012339
     atom    3 type  1   force =     0.00004701    0.00177285   -0.00425955
     atom    4 type  1   force =     0.00003619   -0.00200576    0.00246754
     atom    5 type  1   force =    -0.00003520    0.00200648   -0.00246788
     atom    6 type  1   force =    -0.00004698   -0.00177284    0.00425955
     atom    7 type  1   force =    -0.00004976   -0.00058987   -0.00012379
     atom    8 type  1   force =    -0.00003015   -0.00372410    0.03133259
     atom    9 type  1   force =    -0.00004254   -0.00051878    0.08205202
     atom   10 type  1   force =     0.00004281    0.00051849   -0.08205035
     atom   11 type  1   force =     0.00003015    0.00372412   -0.03133258
     atom   12 type  1   force =     0.00004976    0.00058981    0.00012379
     atom   13 type  1   force =     0.00004641    0.00177277   -0.00425913
     atom   14 type  1   force =     0.00003517   -0.00200647    0.00246789
     atom   15 type  1   force =    -0.00003618    0.00200575   -0.00246752
     atom   16 type  1   force =    -0.00004644   -0.00177273    0.00425911
     atom   17 type  1   force =    -0.00005035   -0.00058995   -0.00012340
     atom   18 type  1   force =    -0.00002977   -0.00372446    0.03133176
     atom   19 type  1   force =    -0.00004283   -0.00051850    0.08205033
     atom   20 type  1   force =     0.00004255    0.00051878   -0.08205197
     The ionic contribution  to forces
     atom    1 type  1   force =    -0.00014363    0.05077421   -9.49320786
     atom    2 type  1   force =    -0.00023664   -0.05635965   -6.36646045
     atom    3 type  1   force =     0.00001985    0.03023667   -4.25193854
     atom    4 type  1   force =    -0.00005760   -0.02164527   -1.09275771
     atom    5 type  1   force =     0.00007883    0.02164988    1.09272643
     atom    6 type  1   force =    -0.00001927   -0.03023681    4.25194065
     atom    7 type  1   force =     0.00025251    0.05635999    6.36642118
     atom    8 type  1   force =     0.00014718   -0.05076971    9.49324409
     atom    9 type  1   force =     0.00003763    0.01949770   11.19541129
     atom   10 type  1   force =    -0.00003935   -0.01950236  -11.19538117
     atom   11 type  1   force =    -0.00014723    0.05077009   -9.49324394
     atom   12 type  1   force =    -0.00025252   -0.05636078   -6.36642090
     atom   13 type  1   force =     0.00001268    0.03023367   -4.25186990
     atom   14 type  1   force =    -0.00007913   -0.02164969   -1.09272628
     atom   15 type  1   force =     0.00005800    0.02164504    1.09275719
     atom   16 type  1   force =    -0.00001327   -0.03023310    4.25186867
     atom   17 type  1   force =     0.00023653    0.05635983    6.36646024
     atom   18 type  1   force =     0.00014361   -0.05077431    9.49320677
     atom   19 type  1   force =     0.00003917    0.01950228   11.19538095
     atom   20 type  1   force =    -0.00003733   -0.01949768  -11.19541070
     The local contribution  to forces
     atom    1 type  1   force =     0.00011455   -0.04639043    9.51761248
     atom    2 type  1   force =     0.00018568    0.05293271    6.36254121
     atom    3 type  1   force =    -0.00006622   -0.03135958    4.25482281
     atom    4 type  1   force =     0.00002110    0.02379462    1.08952907
     atom    5 type  1   force =    -0.00004293   -0.02380007   -1.08949738
     atom    6 type  1   force =     0.00006563    0.03135970   -4.25482499
     atom    7 type  1   force =    -0.00020199   -0.05293355   -6.36250138
     atom    8 type  1   force =    -0.00011789    0.04638556   -9.51765048
     atom    9 type  1   force =     0.00000363   -0.01055302  -11.29310361
     atom   10 type  1   force =    -0.00000277    0.01055753   11.29307104
     atom   11 type  1   force =     0.00011793   -0.04638594    9.51765030
     atom   12 type  1   force =     0.00020199    0.05293436    6.36250107
     atom   13 type  1   force =    -0.00005892   -0.03135661    4.25475320
     atom   14 type  1   force =     0.00004325    0.02379988    1.08949721
     atom   15 type  1   force =    -0.00002150   -0.02379437   -1.08952856
     atom   16 type  1   force =     0.00005953    0.03135602   -4.25475196
     atom   17 type  1   force =    -0.00018558   -0.05293290   -6.36254101
     atom   18 type  1   force =    -0.00011454    0.04639053   -9.51761134
     atom   19 type  1   force =     0.00000297   -0.01055744  -11.29307082
     atom   20 type  1   force =    -0.00000392    0.01055300   11.29310289
     The core correction contribution to forces
     atom    1 type  1   force =     0.00000000    0.00000000    0.00000000
     atom    2 type  1   force =     0.00000000    0.00000000    0.00000000
     atom    3 type  1   force =     0.00000000    0.00000000    0.00000000
     atom    4 type  1   force =     0.00000000    0.00000000    0.00000000
     atom    5 type  1   force =     0.00000000    0.00000000    0.00000000
     atom    6 type  1   force =     0.00000000    0.00000000    0.00000000
     atom    7 type  1   force =     0.00000000    0.00000000    0.00000000
     atom    8 type  1   force =     0.00000000    0.00000000    0.00000000
     atom    9 type  1   force =     0.00000000    0.00000000    0.00000000
     atom   10 type  1   force =     0.00000000    0.00000000    0.00000000
     atom   11 type  1   force =     0.00000000    0.00000000    0.00000000
     atom   12 type  1   force =     0.00000000    0.00000000    0.00000000
     atom   13 type  1   force =     0.00000000    0.00000000    0.00000000
     atom   14 type  1   force =     0.00000000    0.00000000    0.00000000
     atom   15 type  1   force =     0.00000000    0.00000000    0.00000000
     atom   16 type  1   force =     0.00000000    0.00000000    0.00000000
     atom   17 type  1   force =     0.00000000    0.00000000    0.00000000
     atom   18 type  1   force =     0.00000000    0.00000000    0.00000000
     atom   19 type  1   force =     0.00000000    0.00000000    0.00000000
     atom   20 type  1   force =     0.00000000    0.00000000    0.00000000
     The Hubbard contrib.    to forces
     atom    1 type  1   force =     0.00000000    0.00000000    0.00000000
     atom    2 type  1   force =     0.00000000    0.00000000    0.00000000
     atom    3 type  1   force =     0.00000000    0.00000000    0.00000000
     atom    4 type  1   force =     0.00000000    0.00000000    0.00000000
     atom    5 type  1   force =     0.00000000    0.00000000    0.00000000
     atom    6 type  1   force =     0.00000000    0.00000000    0.00000000
     atom    7 type  1   force =     0.00000000    0.00000000    0.00000000
     atom    8 type  1   force =     0.00000000    0.00000000    0.00000000
     atom    9 type  1   force =     0.00000000    0.00000000    0.00000000
     atom   10 type  1   force =     0.00000000    0.00000000    0.00000000
     atom   11 type  1   force =     0.00000000    0.00000000    0.00000000
     atom   12 type  1   force =     0.00000000    0.00000000    0.00000000
     atom   13 type  1   force =     0.00000000    0.00000000    0.00000000
     atom   14 type  1   force =     0.00000000    0.00000000    0.00000000
     atom   15 type  1   force =     0.00000000    0.00000000    0.00000000
     atom   16 type  1   force =     0.00000000    0.00000000    0.00000000
     atom   17 type  1   force =     0.00000000    0.00000000    0.00000000
     atom   18 type  1   force =     0.00000000    0.00000000    0.00000000
     atom   19 type  1   force =     0.00000000    0.00000000    0.00000000
     atom   20 type  1   force =     0.00000000    0.00000000    0.00000000
     The SCF correction term to forces
     atom    1 type  1   force =    -0.00000000   -0.00000000    0.00000001
     atom    2 type  1   force =    -0.00000000    0.00000001    0.00000001
     atom    3 type  1   force =    -0.00000000   -0.00000000   -0.00000000
     atom    4 type  1   force =     0.00000000    0.00000000    0.00000000
     atom    5 type  1   force =     0.00000000   -0.00000000   -0.00000001
     atom    6 type  1   force =     0.00000000    0.00000000   -0.00000000
     atom    7 type  1   force =     0.00000000   -0.00000001   -0.00000001
     atom    8 type  1   force =     0.00000000    0.00000000   -0.00000002
     atom    9 type  1   force =     0.00000000    0.00000000   -0.00000002
     atom   10 type  1   force =    -0.00000000   -0.00000000    0.00000001
     atom   11 type  1   force =     0.00000000   -0.00000000    0.00000001
     atom   12 type  1   force =    -0.00000000    0.00000001    0.00000001
     atom   13 type  1   force =    -0.00000000   -0.00000000   -0.00000000
     atom   14 type  1   force =    -0.00000000   -0.00000000    0.00000000
     atom   15 type  1   force =    -0.00000000   -0.00000000   -0.00000001
     atom   16 type  1   force =    -0.00000000    0.00000000   -0.00000000
     atom   17 type  1   force =    -0.00000000   -0.00000001   -0.00000001
     atom   18 type  1   force =    -0.00000000    0.00000000   -0.00000001
     atom   19 type  1   force =    -0.00000000    0.00000000   -0.00000002
     atom   20 type  1   force =     0.00000000    0.00000000    0.00000002

     Total force =     0.000016     Total SCF correction =     0.000000
     Message from routine punch:
     Nothing written, as per user request (disk_io='none')
 
     init_run     :      5.56s CPU      5.93s WALL (       1 calls)
     electrons    :    809.85s CPU    839.04s WALL (       1 calls)
     forces       :      3.00s CPU      3.03s WALL (       1 calls)

     Called by init_run:
     wfcinit      :      2.49s CPU      2.61s WALL (       1 calls)
     wfcinit:wfcr :      2.36s CPU      2.48s WALL (      62 calls)
     potinit      :      0.05s CPU      0.08s WALL (       1 calls)
     hinit0       :      0.59s CPU      0.71s WALL (       1 calls)

     Called by electrons:
     c_bands      :    559.64s CPU    580.45s WALL (      93 calls)
     sum_band     :     91.32s CPU     97.13s WALL (      93 calls)
     v_of_rho     :      2.98s CPU      3.13s WALL (      94 calls)
     v_h          :      0.29s CPU      0.30s WALL (      94 calls)
     v_xc         :      2.69s CPU      2.83s WALL (      94 calls)
     newd         :      2.04s CPU      2.94s WALL (      94 calls)
     PAW_pot      :      1.25s CPU      1.37s WALL (      94 calls)
     mix_rho      :      9.52s CPU      9.77s WALL (      93 calls)

     Called by c_bands:
     init_us_2    :      8.64s CPU      9.11s WALL (   11656 calls)
     cegterg      :    544.47s CPU    564.71s WALL (    5766 calls)

     Called by sum_band:
     sum_band:wei :      0.22s CPU      0.25s WALL (      93 calls)
     sum_band:loo :     88.40s CPU     92.98s WALL (      93 calls)
     sum_band:buf :      1.11s CPU      1.14s WALL (    5766 calls)
     sum_band:ini :      3.03s CPU      3.11s WALL (    5766 calls)
     sum_band:cal :     12.10s CPU     12.30s WALL (    5766 calls)
     sum_band:bec :      0.39s CPU      0.40s WALL (    5766 calls)
     addusdens    :      2.35s CPU      3.51s WALL (      93 calls)
                                        0.00s GPU  (      93 calls)
     addusd:skk   :      0.34s CPU      0.64s WALL (      93 calls)
                                        0.00s GPU  (      93 calls)

     Called by *egterg:
     cdiaghg      :     48.50s CPU     49.07s WALL (   25619 calls)
     cegterg:over :     24.70s CPU     25.03s WALL (   19853 calls)
     cegterg:upda :     12.12s CPU     12.29s WALL (   19853 calls)
     cegterg:last :     20.52s CPU     20.68s WALL (   10185 calls)
     h_psi        :    396.54s CPU    414.94s WALL (   25681 calls)
     s_psi        :     26.71s CPU     27.17s WALL (   25681 calls)
     g_psi        :      0.37s CPU      0.38s WALL (   19853 calls)

     Called by h_psi:
     h_psi:calbec :     39.80s CPU     40.72s WALL (   25681 calls)
     vloc_psi     :    314.91s CPU    331.94s WALL (   25681 calls)
                                        0.00s GPU  (   25681 calls)
     add_vuspsi   :     38.68s CPU     39.05s WALL (   25681 calls)

     General routines
     calbec       :     52.04s CPU     53.17s WALL (   31695 calls)
     fft          :      2.84s CPU      2.87s WALL (    1222 calls)
     ffts         :      6.55s CPU      6.71s WALL (   11487 calls)
     fftw         :    364.07s CPU    383.94s WALL ( 1426220 calls)
     interpolate  :      0.29s CPU      0.30s WALL (      94 calls)
 
     Parallel routines

     PAW routines
     PAW_pot      :      1.25s CPU      1.37s WALL (      94 calls)
 
     Environ routines
 
     PWSCF        :  13m38.65s CPU  14m 8.76s WALL

 
   This run was terminated on:  12:19:36  26Dec2024            

=------------------------------------------------------------------------------=
   JOB DONE.
=------------------------------------------------------------------------------=
