
     Program PWSCF v.7.4 starts on 20Jan2025 at  1: 3:41 

     This program is part of the open-source Quantum ESPRESSO suite
     for quantum simulation of materials; please cite
         "P. Giannozzi et al., J. Phys.:Condens. Matter 21 395502 (2009);
         "P. Giannozzi et al., J. Phys.:Condens. Matter 29 465901 (2017);
         "P. Giannozzi et al., J. Chem. Phys. 152 154105 (2020);
          URL http://www.quantum-espresso.org", 
     in publications or presentations arising from this work. More details at
     http://www.quantum-espresso.org/quote

     Parallel version (MPI & OpenMP), running on     384 processor cores
     Number of MPI processes:               384
     Threads/MPI process:                     1

     MPI processes distributed on     3 nodes
     492852 MiB available memory on the printing compute node when the environment starts

     Reading input from espresso.pwi
Warning: card &CELL ignored
Warning: card    PRESS_CONV_THR   = 0.1 ignored
Warning: card    CELL_DOFREE      = 'ALL' ignored
Warning: card / ignored
Warning: card &FCP ignored
Warning: card / ignored
Warning: card &RISM ignored
Warning: card / ignored

     Current dimensions of program PWSCF are:
     Max number of different atomic species (ntypx) = 10
     Max number of k-points (npk) =  40000
     Max angular momentum in pseudopotentials (lmaxx) =  4

     IMPORTANT: XC functional enforced from input :
     Exchange-correlation= PBE
                           (   1   4   3   4   0   0   0)
     Any further DFT definition will be discarded
     Please, verify this is what you really want


     Reading input from environ.in:
     * using ionic solvent mode
     * setting boundary derivatives method to SSCS default
     * setting electrolyte-boundary derivatives method to SSCS default

Environ Warning (1001): card EOF ignored

     
     Found identity + (  0.0000  0.5000  0.0000) symmetry
     This is a supercell, fractional translations are disabled

     K-points division:     npool     =       2
     R & G space division:  proc/nbgrp/npool/nimage =     192
     Subspace diagonalization in iterative solution of the eigenvalue problem:
     a serial algorithm will be used


     Parallelization info
     --------------------
     sticks:   dense  smooth     PW     G-vecs:    dense   smooth      PW
     Min          55      22      6                33069     8358    1132
     Max          56      23      7                33136     8403    1194
     Sum       10733    4281   1153              6359029  1608267  224795

     Using Slab Decomposition



     bravais-lattice index     =            6
     lattice parameter (alat)  =      12.9830  a.u.
     unit-cell volume          =   16640.2915 (a.u.)^3
     number of atoms/cell      =           32
     number of atomic types    =            1
     number of electrons       =        96.00
     number of Kohn-Sham states=           72
     kinetic-energy cutoff     =      80.0000  Ry
     charge density cutoff     =     800.0000  Ry
     scf convergence threshold =      1.0E-16
     mixing beta               =       0.2000
     number of iterations used =            8  local-TF  mixing
     Exchange-correlation= PBE
                           (   1   4   3   4   0   0   0)

     ================================================================================

                                  Environ Setup Summary

     ================================================================================

     Please cite

          O. Andreussi, I. Dabo and N. Marzari, J. Chem. Phys. 136, 064102 (2012)
          F. Nattino, M. Truscott, N. Marzari, and O. Andreussi, J. Chem. Phys. 150, 041722 (2019)

     in publications or presentations arising from this work.

     ================================================================================

     Parameters
     ==========

     compensation onset threshold      =               0.1000E+00
     static permittivity               =                    89.90
     surface tension in input (dyn/cm) =                    37.30
     surface tension in internal units =               0.4792E-04

     Solvent Boundary
     ================

     solvent mode                      =                    ionic
     derivatives method                =                   lowmem
     electrolyte derivatives method    =                   lowmem
     numerical core for derivatives    =                      fft
     switching function adopted        =                     SCCS
     density limit for vacuum region   =               0.5000E-02
     density limit for bulk solvent    =               0.1000E-03
     soft-sphere radius mode           =                    bondi
     soft-sphere softness              =                     0.50
     alpha                             =                     1.32

     Electrostatic Setup
     ===================

     electrostatic problem to solve    =                    modpb
     numerical solver adopted          =                   newton
     type of auxiliary density adopted =                     none
     numerical core for poisson        =                      fft
     adopting a nested solver scheme
     inner solver                      =                       cg
     inner core                        =                      fft
     type of pbc corrections           =                parabolic
     numerical core for corrections    =                      1da

     ================================================================================


     >>>>> Grand-Canonical SCF is activated <<<<<
     Initial Total Charge  =     0.000000 e
     Target Fermi Energy   =    -4.904000 eV
     Thr. of Fermi Energy  =     0.001000 eV
     Wave-shift of Kerker  =     0.400000 bohr^-1
     Wave-shift of Hartree =     1.500000 bohr^-1
     Mixing Rate of Fermi  =     0.050000

     celldm(1)=  12.983009  celldm(2)=   0.000000  celldm(3)=   7.603873
     celldm(4)=   0.000000  celldm(5)=   0.000000  celldm(6)=   0.000000

     crystal axes: (cart. coord. in units of alat)
               a(1) = (   1.000000   0.000000   0.000000 )  
               a(2) = (   0.000000   1.000000   0.000000 )  
               a(3) = (   0.000000   0.000000   7.603873 )  

     reciprocal axes: (cart. coord. in units 2 pi/alat)
               b(1) = (  1.000000  0.000000  0.000000 )  
               b(2) = (  0.000000  1.000000  0.000000 )  
               b(3) = (  0.000000  0.000000  0.131512 )  


     PseudoPot. # 1 for Li read from file:
     /work/e89/e89/ba3g18/Repos/Pseudopotentials/Pslibrary/Li.pbe-sl-kjpaw_psl.1.0.0.UPF
     MD5 check sum: 3f4d2cafebb47c6c3aa8ed472e6f074d
     Pseudo is Projector augmented-wave, Zval =  3.0
     Generated using 'atomic' code by A. Dal Corso  v.7.4
     Shape of augmentation charge: PSQ
     Using radial grid of 1017 points,  4 beta functions with: 
                l(1) =   0
                l(2) =   0
                l(3) =   1
                l(4) =   1
     Q(r) pseudized with 0 coefficients 


     atomic species   valence    mass     pseudopotential
     Li                3.00     6.94000     Li( 1.00)

      8 Sym. Ops. (no inversion) found


                                    s                        frac. trans.

      isym =  1     identity                                     

 cryst.   s( 1) = (     1          0          0      )
                  (     0          1          0      )
                  (     0          0          1      )

 cart.    s( 1) = (  1.0000000  0.0000000  0.0000000 )
                  (  0.0000000  1.0000000  0.0000000 )
                  (  0.0000000  0.0000000  1.0000000 )


      isym =  2     180 deg rotation - cart. axis [0,0,1]        

 cryst.   s( 2) = (    -1          0          0      )
                  (     0         -1          0      )
                  (     0          0          1      )

 cart.    s( 2) = ( -1.0000000  0.0000000  0.0000000 )
                  (  0.0000000 -1.0000000  0.0000000 )
                  (  0.0000000  0.0000000  1.0000000 )


      isym =  3      90 deg rotation - cart. axis [0,0,-1]       

 cryst.   s( 3) = (     0         -1          0      )
                  (     1          0          0      )
                  (     0          0          1      )

 cart.    s( 3) = (  0.0000000  1.0000000  0.0000000 )
                  ( -1.0000000  0.0000000  0.0000000 )
                  (  0.0000000  0.0000000  1.0000000 )


      isym =  4      90 deg rotation - cart. axis [0,0,1]        

 cryst.   s( 4) = (     0          1          0      )
                  (    -1          0          0      )
                  (     0          0          1      )

 cart.    s( 4) = (  0.0000000 -1.0000000  0.0000000 )
                  (  1.0000000  0.0000000  0.0000000 )
                  (  0.0000000  0.0000000  1.0000000 )


      isym =  5     inv. 180 deg rotation - cart. axis [0,1,0]   

 cryst.   s( 5) = (     1          0          0      )
                  (     0         -1          0      )
                  (     0          0          1      )

 cart.    s( 5) = (  1.0000000  0.0000000  0.0000000 )
                  (  0.0000000 -1.0000000  0.0000000 )
                  (  0.0000000  0.0000000  1.0000000 )


      isym =  6     inv. 180 deg rotation - cart. axis [1,0,0]   

 cryst.   s( 6) = (    -1          0          0      )
                  (     0          1          0      )
                  (     0          0          1      )

 cart.    s( 6) = ( -1.0000000  0.0000000  0.0000000 )
                  (  0.0000000  1.0000000  0.0000000 )
                  (  0.0000000  0.0000000  1.0000000 )


      isym =  7     inv. 180 deg rotation - cart. axis [1,1,0]   

 cryst.   s( 7) = (     0         -1          0      )
                  (    -1          0          0      )
                  (     0          0          1      )

 cart.    s( 7) = (  0.0000000 -1.0000000  0.0000000 )
                  ( -1.0000000  0.0000000  0.0000000 )
                  (  0.0000000  0.0000000  1.0000000 )


      isym =  8     inv. 180 deg rotation - cart. axis [1,-1,0]  

 cryst.   s( 8) = (     0          1          0      )
                  (     1          0          0      )
                  (     0          0          1      )

 cart.    s( 8) = (  0.0000000  1.0000000  0.0000000 )
                  (  1.0000000  0.0000000  0.0000000 )
                  (  0.0000000  0.0000000  1.0000000 )


     point group C_4v (4mm) 
     there are  5 classes
     the character table:

       E     2C4   C2    2s_v  2s_d 
A_1    1.00  1.00  1.00  1.00  1.00
A_2    1.00  1.00  1.00 -1.00 -1.00
B_1    1.00 -1.00  1.00  1.00 -1.00
B_2    1.00 -1.00  1.00 -1.00  1.00
E      2.00  0.00 -2.00  0.00  0.00

     the symmetry operations in each class and the name of the first element:

     E        1
          identity                                               
     2C4      3    4
           90 deg rotation - cart. axis [0,0,-1]                 
     C2       2
          180 deg rotation - cart. axis [0,0,1]                  
     2s_v     5    6
          inv. 180 deg rotation - cart. axis [0,1,0]             
     2s_d     7    8
          inv. 180 deg rotation - cart. axis [1,1,0]             

   Cartesian axes

     site n.     atom                  positions (alat units)
         1        Li     tau(   1) = (  -0.0000000  -0.0000000   3.1756237  )
         2        Li     tau(   2) = (   0.2500000   0.2500000   2.8777192  )
         3        Li     tau(   3) = (  -0.0000000  -0.0000000   3.6723870  )
         4        Li     tau(   4) = (   0.2499995   0.2499995   3.4172246  )
         5        Li     tau(   5) = (  -0.0000000  -0.0000000   4.1867114  )
         6        Li     tau(   6) = (   0.2500017   0.2500017   3.9315747  )
         7        Li     tau(   7) = (  -0.0000000  -0.0000000   4.7260903  )
         8        Li     tau(   8) = (   0.2499970   0.2499970   4.4282342  )
         9        Li     tau(   9) = (  -0.0000000   0.5000000   3.1756241  )
        10        Li     tau(  10) = (   0.2500000   0.7500000   2.8777192  )
        11        Li     tau(  11) = (  -0.0000000   0.5000000   3.6723852  )
        12        Li     tau(  12) = (   0.2499995   0.7500004   3.4172246  )
        13        Li     tau(  13) = (  -0.0000000   0.5000000   4.1867173  )
        14        Li     tau(  14) = (   0.2500017   0.7499983   3.9315747  )
        15        Li     tau(  15) = (  -0.0000000   0.5000000   4.7260846  )
        16        Li     tau(  16) = (   0.2499970   0.7500030   4.4282342  )
        17        Li     tau(  17) = (   0.5000000  -0.0000000   3.1756241  )
        18        Li     tau(  18) = (   0.7500000   0.2500000   2.8777192  )
        19        Li     tau(  19) = (   0.5000000  -0.0000000   3.6723852  )
        20        Li     tau(  20) = (   0.7500004   0.2499995   3.4172246  )
        21        Li     tau(  21) = (   0.5000000  -0.0000000   4.1867173  )
        22        Li     tau(  22) = (   0.7499983   0.2500017   3.9315747  )
        23        Li     tau(  23) = (   0.5000000  -0.0000000   4.7260846  )
        24        Li     tau(  24) = (   0.7500030   0.2499970   4.4282342  )
        25        Li     tau(  25) = (   0.5000000   0.5000000   3.1756246  )
        26        Li     tau(  26) = (   0.7500000   0.7500000   2.8777192  )
        27        Li     tau(  27) = (   0.5000000   0.5000000   3.6723836  )
        28        Li     tau(  28) = (   0.7500004   0.7500004   3.4172246  )
        29        Li     tau(  29) = (   0.5000000   0.5000000   4.1867231  )
        30        Li     tau(  30) = (   0.7499983   0.7499983   3.9315747  )
        31        Li     tau(  31) = (   0.5000000   0.5000000   4.7260770  )
        32        Li     tau(  32) = (   0.7500030   0.7500030   4.4282342  )

   Crystallographic axes

     site n.     atom                  positions (cryst. coord.)
         1        Li     tau(   1) = ( -0.0000000 -0.0000000  0.4176324  )
         2        Li     tau(   2) = (  0.2500000  0.2500000  0.3784544  )
         3        Li     tau(   3) = ( -0.0000000 -0.0000000  0.4829627  )
         4        Li     tau(   4) = (  0.2499995  0.2499995  0.4494058  )
         5        Li     tau(   5) = ( -0.0000000 -0.0000000  0.5506025  )
         6        Li     tau(   6) = (  0.2500017  0.2500017  0.5170490  )
         7        Li     tau(   7) = ( -0.0000000 -0.0000000  0.6215372  )
         8        Li     tau(   8) = (  0.2499970  0.2499970  0.5823656  )
         9        Li     tau(   9) = ( -0.0000000  0.5000000  0.4176325  )
        10        Li     tau(  10) = (  0.2500000  0.7500000  0.3784544  )
        11        Li     tau(  11) = ( -0.0000000  0.5000000  0.4829625  )
        12        Li     tau(  12) = (  0.2499995  0.7500004  0.4494058  )
        13        Li     tau(  13) = ( -0.0000000  0.5000000  0.5506033  )
        14        Li     tau(  14) = (  0.2500017  0.7499983  0.5170490  )
        15        Li     tau(  15) = ( -0.0000000  0.5000000  0.6215365  )
        16        Li     tau(  16) = (  0.2499970  0.7500030  0.5823656  )
        17        Li     tau(  17) = (  0.5000000 -0.0000000  0.4176325  )
        18        Li     tau(  18) = (  0.7500000  0.2500000  0.3784544  )
        19        Li     tau(  19) = (  0.5000000 -0.0000000  0.4829625  )
        20        Li     tau(  20) = (  0.7500004  0.2499995  0.4494058  )
        21        Li     tau(  21) = (  0.5000000 -0.0000000  0.5506033  )
        22        Li     tau(  22) = (  0.7499983  0.2500017  0.5170490  )
        23        Li     tau(  23) = (  0.5000000 -0.0000000  0.6215365  )
        24        Li     tau(  24) = (  0.7500030  0.2499970  0.5823656  )
        25        Li     tau(  25) = (  0.5000000  0.5000000  0.4176325  )
        26        Li     tau(  26) = (  0.7500000  0.7500000  0.3784544  )
        27        Li     tau(  27) = (  0.5000000  0.5000000  0.4829622  )
        28        Li     tau(  28) = (  0.7500004  0.7500004  0.4494058  )
        29        Li     tau(  29) = (  0.5000000  0.5000000  0.5506040  )
        30        Li     tau(  30) = (  0.7499983  0.7499983  0.5170490  )
        31        Li     tau(  31) = (  0.5000000  0.5000000  0.6215355  )
        32        Li     tau(  32) = (  0.7500030  0.7500030  0.5823656  )

     number of k points=    21  Marzari-Vanderbilt smearing, width (Ry)=  0.0100
                       cart. coord. in units 2pi/alat
        k(    1) = (   0.0000000   0.0000000   0.0000000), wk =   0.0200000
        k(    2) = (   0.0000000   0.1000000   0.0000000), wk =   0.0800000
        k(    3) = (   0.0000000   0.2000000   0.0000000), wk =   0.0800000
        k(    4) = (   0.0000000   0.3000000   0.0000000), wk =   0.0800000
        k(    5) = (   0.0000000   0.4000000   0.0000000), wk =   0.0800000
        k(    6) = (   0.0000000  -0.5000000   0.0000000), wk =   0.0400000
        k(    7) = (   0.1000000   0.1000000   0.0000000), wk =   0.0800000
        k(    8) = (   0.1000000   0.2000000   0.0000000), wk =   0.1600000
        k(    9) = (   0.1000000   0.3000000   0.0000000), wk =   0.1600000
        k(   10) = (   0.1000000   0.4000000   0.0000000), wk =   0.1600000
        k(   11) = (   0.1000000  -0.5000000   0.0000000), wk =   0.0800000
        k(   12) = (   0.2000000   0.2000000   0.0000000), wk =   0.0800000
        k(   13) = (   0.2000000   0.3000000   0.0000000), wk =   0.1600000
        k(   14) = (   0.2000000   0.4000000   0.0000000), wk =   0.1600000
        k(   15) = (   0.2000000  -0.5000000   0.0000000), wk =   0.0800000
        k(   16) = (   0.3000000   0.3000000   0.0000000), wk =   0.0800000
        k(   17) = (   0.3000000   0.4000000   0.0000000), wk =   0.1600000
        k(   18) = (   0.3000000  -0.5000000   0.0000000), wk =   0.0800000
        k(   19) = (   0.4000000   0.4000000   0.0000000), wk =   0.0800000
        k(   20) = (   0.4000000  -0.5000000   0.0000000), wk =   0.0800000
        k(   21) = (  -0.5000000  -0.5000000   0.0000000), wk =   0.0200000

                       cryst. coord.
        k(    1) = (   0.0000000   0.0000000   0.0000000), wk =   0.0200000
        k(    2) = (   0.0000000   0.1000000   0.0000000), wk =   0.0800000
        k(    3) = (   0.0000000   0.2000000   0.0000000), wk =   0.0800000
        k(    4) = (   0.0000000   0.3000000   0.0000000), wk =   0.0800000
        k(    5) = (   0.0000000   0.4000000   0.0000000), wk =   0.0800000
        k(    6) = (   0.0000000  -0.5000000   0.0000000), wk =   0.0400000
        k(    7) = (   0.1000000   0.1000000   0.0000000), wk =   0.0800000
        k(    8) = (   0.1000000   0.2000000   0.0000000), wk =   0.1600000
        k(    9) = (   0.1000000   0.3000000   0.0000000), wk =   0.1600000
        k(   10) = (   0.1000000   0.4000000   0.0000000), wk =   0.1600000
        k(   11) = (   0.1000000  -0.5000000   0.0000000), wk =   0.0800000
        k(   12) = (   0.2000000   0.2000000   0.0000000), wk =   0.0800000
        k(   13) = (   0.2000000   0.3000000   0.0000000), wk =   0.1600000
        k(   14) = (   0.2000000   0.4000000   0.0000000), wk =   0.1600000
        k(   15) = (   0.2000000  -0.5000000   0.0000000), wk =   0.0800000
        k(   16) = (   0.3000000   0.3000000   0.0000000), wk =   0.0800000
        k(   17) = (   0.3000000   0.4000000   0.0000000), wk =   0.1600000
        k(   18) = (   0.3000000  -0.5000000   0.0000000), wk =   0.0800000
        k(   19) = (   0.4000000   0.4000000   0.0000000), wk =   0.0800000
        k(   20) = (   0.4000000  -0.5000000   0.0000000), wk =   0.0800000
        k(   21) = (  -0.5000000  -0.5000000   0.0000000), wk =   0.0200000

     Dense  grid:  6359029 G-vectors     FFT dimensions: ( 120, 120, 900)

     Smooth grid:  1608267 G-vectors     FFT dimensions: (  75,  75, 576)

     Dynamical RAM for                 wfc:       1.15 MB

     Dynamical RAM for     wfc (w. buffer):      13.80 MB

     Dynamical RAM for           str. fact:       0.51 MB

     Dynamical RAM for           local pot:       0.00 MB

     Dynamical RAM for          nlocal pot:       4.09 MB

     Dynamical RAM for                qrad:       0.65 MB

     Dynamical RAM for          rho,v,vnew:       3.16 MB

     Dynamical RAM for               rhoin:       1.05 MB

     Dynamical RAM for            rho*nmix:       8.09 MB

     Dynamical RAM for           G-vectors:       1.96 MB

     Dynamical RAM for          h,s,v(r/c):       3.80 MB

     Dynamical RAM for          <psi|beta>:       0.28 MB

     Dynamical RAM for                 psi:       4.60 MB

     Dynamical RAM for                hpsi:       4.60 MB

     Dynamical RAM for                spsi:       4.60 MB

     Dynamical RAM for      wfcinit/wfcrot:       2.42 MB

     Dynamical RAM for           addusdens:      19.21 MB

     Dynamical RAM for          addusforce:      34.90 MB

     Estimated static dynamical RAM per process >      28.98 MB

     Estimated max dynamical RAM per process >      97.03 MB

     Estimated total dynamical RAM >      25.47 GB

     Initial potential from superposition of free atoms

     starting charge      95.8525, renormalised to      96.0000

     negative rho (up, down):  2.818E-03 0.000E+00
     Starting wfcs are random
     Checking if some PAW data can be deallocated... 

     total cpu time spent up to now is       22.7 secs

     Self-consistent Calculation

     iteration #  1     ecut=    80.00 Ry     beta= 0.20
     Davidson diagonalization with overlap

---- Real-time Memory Report at c_bands before calling an iterative solver
           439 MiB given to the printing process from OS
             0 MiB allocation reported by mallinfo(arena+hblkhd)
        478516 MiB available memory on the node where the printing process lives
------------------
     c_bands:  1 eigenvalues not converged
     c_bands:  1 eigenvalues not converged
     ethr =  1.00E-12,  avg # of iterations =108.9

     negative rho (up, down):  2.099E-03 0.000E+00

     add environment contribution to local potential

     total cpu time spent up to now is      139.9 secs

     total energy              =    -481.18360148 Ry
     estimated scf accuracy    <       0.09147718 Ry

     total charge of GC-SCF    =       0.07743195 e
     the Fermi energy          =      -4.30468225 eV
                        (error :       0.59931775 eV)
     electrostatic embedding   =       0.00000000 Ry
     cavitation energy         =       0.01934203 Ry
     electrolyte free energy   =       0.00716218 Ry
     correction to one-el term =      -0.00000000 Ry

     iteration #  2     ecut=    80.00 Ry     beta= 0.20
     Davidson diagonalization with overlap

---- Real-time Memory Report at c_bands before calling an iterative solver
           439 MiB given to the printing process from OS
             0 MiB allocation reported by mallinfo(arena+hblkhd)
        478417 MiB available memory on the node where the printing process lives
------------------
     ethr =  1.00E-05,  avg # of iterations = 17.3

     negative rho (up, down):  1.620E-03 0.000E+00

     add environment contribution to local potential

     total cpu time spent up to now is      160.2 secs

     total energy              =    -481.33216600 Ry
     estimated scf accuracy    <       0.02678116 Ry

     total charge of GC-SCF    =       0.14227145 e
     the Fermi energy          =      -3.43016041 eV
                        (error :       1.47383959 eV)
     electrostatic embedding   =      -0.02322862 Ry
     cavitation energy         =       0.01934203 Ry
     electrolyte free energy   =      -0.00555873 Ry
     correction to one-el term =      -2.39598856 Ry

     iteration #  3     ecut=    80.00 Ry     beta= 0.20
     Davidson diagonalization with overlap

---- Real-time Memory Report at c_bands before calling an iterative solver
           439 MiB given to the printing process from OS
             0 MiB allocation reported by mallinfo(arena+hblkhd)
        478384 MiB available memory on the node where the printing process lives
------------------
     ethr =  1.00E-05,  avg # of iterations =  6.9

     negative rho (up, down):  1.195E-03 0.000E+00

     add environment contribution to local potential

     total cpu time spent up to now is      173.2 secs

     total energy              =    -481.26616593 Ry
     estimated scf accuracy    <       0.01441117 Ry

     total charge of GC-SCF    =       0.38312083 e
     the Fermi energy          =      -3.45468429 eV
                        (error :       1.44931571 eV)
     electrostatic embedding   =      -0.02098095 Ry
     cavitation energy         =       0.01934203 Ry
     electrolyte free energy   =      -0.00565831 Ry
     correction to one-el term =      -4.09807618 Ry

     iteration #  4     ecut=    80.00 Ry     beta= 0.20
     Davidson diagonalization with overlap

---- Real-time Memory Report at c_bands before calling an iterative solver
           439 MiB given to the printing process from OS
             0 MiB allocation reported by mallinfo(arena+hblkhd)
        478337 MiB available memory on the node where the printing process lives
------------------
     ethr =  1.00E-05,  avg # of iterations = 10.6

     negative rho (up, down):  9.861E-04 0.000E+00

     add environment contribution to local potential

     total cpu time spent up to now is      190.7 secs

     total energy              =    -481.29495132 Ry
     estimated scf accuracy    <       0.00638676 Ry

     total charge of GC-SCF    =       0.69059391 e
     the Fermi energy          =      -3.28861442 eV
                        (error :       1.61538558 eV)
     electrostatic embedding   =      -0.03079532 Ry
     cavitation energy         =       0.01934203 Ry
     electrolyte free energy   =      -0.00487146 Ry
     correction to one-el term =     -11.05227451 Ry

     iteration #  5     ecut=    80.00 Ry     beta= 0.20
     Davidson diagonalization with overlap

---- Real-time Memory Report at c_bands before calling an iterative solver
           439 MiB given to the printing process from OS
             0 MiB allocation reported by mallinfo(arena+hblkhd)
        478293 MiB available memory on the node where the printing process lives
------------------
     ethr =  6.70E-06,  avg # of iterations = 11.2

     negative rho (up, down):  8.123E-04 0.000E+00

     add environment contribution to local potential

     total cpu time spent up to now is      207.9 secs

     total energy              =    -481.22629193 Ry
     estimated scf accuracy    <       0.00685453 Ry

     total charge of GC-SCF    =       1.39383465 e
     the Fermi energy          =      -3.60462290 eV
                        (error :       1.29937710 eV)
     electrostatic embedding   =      -0.07511810 Ry
     cavitation energy         =       0.01934203 Ry
     electrolyte free energy   =      -0.00665671 Ry
     correction to one-el term =     -19.50390863 Ry

     iteration #  6     ecut=    80.00 Ry     beta= 0.20
     Davidson diagonalization with overlap

---- Real-time Memory Report at c_bands before calling an iterative solver
           439 MiB given to the printing process from OS
             0 MiB allocation reported by mallinfo(arena+hblkhd)
        478231 MiB available memory on the node where the printing process lives
------------------
     ethr =  6.70E-06,  avg # of iterations = 10.5

     negative rho (up, down):  7.165E-04 0.000E+00

     add environment contribution to local potential

     total cpu time spent up to now is      224.7 secs

     total energy              =    -481.46395079 Ry
     estimated scf accuracy    <       0.00786501 Ry

     total charge of GC-SCF    =       1.51683882 e
     the Fermi energy          =      -3.60737370 eV
                        (error :       1.29662630 eV)
     electrostatic embedding   =      -0.32367582 Ry
     cavitation energy         =       0.01934203 Ry
     electrolyte free energy   =      -0.00927974 Ry
     correction to one-el term =     -39.56889392 Ry

     iteration #  7     ecut=    80.00 Ry     beta= 0.20
     Davidson diagonalization with overlap

---- Real-time Memory Report at c_bands before calling an iterative solver
           439 MiB given to the printing process from OS
             0 MiB allocation reported by mallinfo(arena+hblkhd)
        478208 MiB available memory on the node where the printing process lives
------------------
     ethr =  6.70E-06,  avg # of iterations =  5.3

     negative rho (up, down):  6.198E-04 0.000E+00

     add environment contribution to local potential

     total cpu time spent up to now is      236.6 secs

     total energy              =    -481.48124284 Ry
     estimated scf accuracy    <       0.00578385 Ry

     total charge of GC-SCF    =       1.59608847 e
     the Fermi energy          =      -3.67070347 eV
                        (error :       1.23329653 eV)
     electrostatic embedding   =      -0.38623512 Ry
     cavitation energy         =       0.01934203 Ry
     electrolyte free energy   =      -0.01042611 Ry
     correction to one-el term =     -43.15486108 Ry

     iteration #  8     ecut=    80.00 Ry     beta= 0.20
     Davidson diagonalization with overlap

---- Real-time Memory Report at c_bands before calling an iterative solver
           439 MiB given to the printing process from OS
             0 MiB allocation reported by mallinfo(arena+hblkhd)
        478171 MiB available memory on the node where the printing process lives
------------------
     ethr =  6.13E-06,  avg # of iterations =  7.8

     negative rho (up, down):  6.590E-04 0.000E+00

     add environment contribution to local potential

     total cpu time spent up to now is      250.3 secs

     total energy              =    -481.35915902 Ry
     estimated scf accuracy    <       0.00531773 Ry

     total charge of GC-SCF    =       2.03288259 e
     the Fermi energy          =      -3.81718254 eV
                        (error :       1.08681746 eV)
     electrostatic embedding   =      -0.42682109 Ry
     cavitation energy         =       0.01934203 Ry
     electrolyte free energy   =      -0.01145979 Ry
     correction to one-el term =     -45.44684976 Ry

     iteration #  9     ecut=    80.00 Ry     beta= 0.20
     Davidson diagonalization with overlap

---- Real-time Memory Report at c_bands before calling an iterative solver
           439 MiB given to the printing process from OS
             0 MiB allocation reported by mallinfo(arena+hblkhd)
        478144 MiB available memory on the node where the printing process lives
------------------
     ethr =  5.66E-06,  avg # of iterations = 13.1

     negative rho (up, down):  3.822E-03 0.000E+00

     add environment contribution to local potential

     total cpu time spent up to now is      270.1 secs

     total energy              =    -481.42692327 Ry
     estimated scf accuracy    <       0.00404241 Ry

     total charge of GC-SCF    =       2.49950561 e
     the Fermi energy          =      -4.46677563 eV
                        (error :       0.43722437 eV)
     electrostatic embedding   =      -0.69621358 Ry
     cavitation energy         =       0.01934203 Ry
     electrolyte free energy   =      -0.01632474 Ry
     correction to one-el term =     -58.00821544 Ry

     iteration # 10     ecut=    80.00 Ry     beta= 0.20
     Davidson diagonalization with overlap

---- Real-time Memory Report at c_bands before calling an iterative solver
           439 MiB given to the printing process from OS
             0 MiB allocation reported by mallinfo(arena+hblkhd)
        478126 MiB available memory on the node where the printing process lives
------------------
     ethr =  4.32E-06,  avg # of iterations =  8.8

     negative rho (up, down):  5.155E-03 0.000E+00

     add environment contribution to local potential

     total cpu time spent up to now is      286.3 secs

     total energy              =    -481.47447768 Ry
     estimated scf accuracy    <       0.00076422 Ry

     total charge of GC-SCF    =       2.69365258 e
     the Fermi energy          =      -4.75201805 eV
                        (error :       0.15198195 eV)
     electrostatic embedding   =      -1.07801518 Ry
     cavitation energy         =       0.01934203 Ry
     electrolyte free energy   =      -0.02284163 Ry
     correction to one-el term =     -71.55497418 Ry

     iteration # 11     ecut=    80.00 Ry     beta= 0.20
     Davidson diagonalization with overlap

---- Real-time Memory Report at c_bands before calling an iterative solver
           439 MiB given to the printing process from OS
             0 MiB allocation reported by mallinfo(arena+hblkhd)
        478138 MiB available memory on the node where the printing process lives
------------------
     ethr =  8.19E-07,  avg # of iterations =  8.6

     negative rho (up, down):  8.400E-04 0.000E+00

     add environment contribution to local potential

     total cpu time spent up to now is      303.2 secs

     total energy              =    -481.48216322 Ry
     estimated scf accuracy    <       0.00023253 Ry

     total charge of GC-SCF    =       2.72824364 e
     the Fermi energy          =      -4.71969453 eV
                        (error :       0.18430547 eV)
     electrostatic embedding   =      -1.26970324 Ry
     cavitation energy         =       0.01934203 Ry
     electrolyte free energy   =      -0.02626723 Ry
     correction to one-el term =     -77.27167532 Ry

     iteration # 12     ecut=    80.00 Ry     beta= 0.20
     Davidson diagonalization with overlap

---- Real-time Memory Report at c_bands before calling an iterative solver
           439 MiB given to the printing process from OS
             0 MiB allocation reported by mallinfo(arena+hblkhd)
        478137 MiB available memory on the node where the printing process lives
------------------
     ethr =  2.49E-07,  avg # of iterations =  7.2

     negative rho (up, down):  5.607E-04 0.000E+00

     add environment contribution to local potential

     total cpu time spent up to now is      318.4 secs

     total energy              =    -481.48210817 Ry
     estimated scf accuracy    <       0.00010292 Ry

     total charge of GC-SCF    =       2.74503366 e
     the Fermi energy          =      -4.77017741 eV
                        (error :       0.13382259 eV)
     electrostatic embedding   =      -1.30995409 Ry
     cavitation energy         =       0.01934203 Ry
     electrolyte free energy   =      -0.02697473 Ry
     correction to one-el term =     -78.53202229 Ry

     iteration # 13     ecut=    80.00 Ry     beta= 0.20
     Davidson diagonalization with overlap

---- Real-time Memory Report at c_bands before calling an iterative solver
           439 MiB given to the printing process from OS
             0 MiB allocation reported by mallinfo(arena+hblkhd)
        478133 MiB available memory on the node where the printing process lives
------------------
     ethr =  1.10E-07,  avg # of iterations = 11.3

     negative rho (up, down):  4.452E-04 0.000E+00

     add environment contribution to local potential

     total cpu time spent up to now is      337.6 secs

     total energy              =    -481.48318339 Ry
     estimated scf accuracy    <       0.00003318 Ry

     total charge of GC-SCF    =       2.69527321 e
     the Fermi energy          =      -4.85344863 eV
                        (error :       0.05055137 eV)
     electrostatic embedding   =      -1.32762901 Ry
     cavitation energy         =       0.01934203 Ry
     electrolyte free energy   =      -0.02732927 Ry
     correction to one-el term =     -79.07688714 Ry

     iteration # 14     ecut=    80.00 Ry     beta= 0.20
     Davidson diagonalization with overlap

---- Real-time Memory Report at c_bands before calling an iterative solver
           439 MiB given to the printing process from OS
             0 MiB allocation reported by mallinfo(arena+hblkhd)
        478101 MiB available memory on the node where the printing process lives
------------------
     ethr =  3.56E-08,  avg # of iterations = 10.5

     negative rho (up, down):  4.399E-04 0.000E+00

     add environment contribution to local potential

     total cpu time spent up to now is      355.6 secs

     total energy              =    -481.48165350 Ry
     estimated scf accuracy    <       0.00002741 Ry

     total charge of GC-SCF    =       2.71930184 e
     the Fermi energy          =      -4.83578817 eV
                        (error :       0.06821183 eV)
     electrostatic embedding   =      -1.27718168 Ry
     cavitation energy         =       0.01934203 Ry
     electrolyte free energy   =      -0.02637287 Ry
     correction to one-el term =     -77.66749671 Ry

     iteration # 15     ecut=    80.00 Ry     beta= 0.20
     Davidson diagonalization with overlap

---- Real-time Memory Report at c_bands before calling an iterative solver
           439 MiB given to the printing process from OS
             0 MiB allocation reported by mallinfo(arena+hblkhd)
        478110 MiB available memory on the node where the printing process lives
------------------
     ethr =  2.94E-08,  avg # of iterations = 10.9

     negative rho (up, down):  1.177E-03 0.000E+00

     add environment contribution to local potential

     total cpu time spent up to now is      373.3 secs

     total energy              =    -481.48156807 Ry
     estimated scf accuracy    <       0.00001351 Ry

     total charge of GC-SCF    =       2.75099004 e
     the Fermi energy          =      -4.86994512 eV
                        (error :       0.03405488 eV)
     electrostatic embedding   =      -1.29788734 Ry
     cavitation energy         =       0.01934203 Ry
     electrolyte free energy   =      -0.02682322 Ry
     correction to one-el term =     -78.22655469 Ry

     iteration # 16     ecut=    80.00 Ry     beta= 0.20
     Davidson diagonalization with overlap

---- Real-time Memory Report at c_bands before calling an iterative solver
           439 MiB given to the printing process from OS
             0 MiB allocation reported by mallinfo(arena+hblkhd)
        478085 MiB available memory on the node where the printing process lives
------------------
     ethr =  1.45E-08,  avg # of iterations = 12.4

     negative rho (up, down):  9.155E-04 0.000E+00

     add environment contribution to local potential

     total cpu time spent up to now is      392.6 secs

     total energy              =    -481.48165860 Ry
     estimated scf accuracy    <       0.00000431 Ry

     total charge of GC-SCF    =       2.75467390 e
     the Fermi energy          =      -4.88967168 eV
                        (error :       0.01432832 eV)
     electrostatic embedding   =      -1.32735891 Ry
     cavitation energy         =       0.01934203 Ry
     electrolyte free energy   =      -0.02742874 Ry
     correction to one-el term =     -79.01201613 Ry

     iteration # 17     ecut=    80.00 Ry     beta= 0.20
     Davidson diagonalization with overlap

---- Real-time Memory Report at c_bands before calling an iterative solver
           439 MiB given to the printing process from OS
             0 MiB allocation reported by mallinfo(arena+hblkhd)
        478091 MiB available memory on the node where the printing process lives
------------------
     ethr =  4.62E-09,  avg # of iterations =  9.1

     negative rho (up, down):  5.235E-04 0.000E+00

     add environment contribution to local potential

     total cpu time spent up to now is      408.3 secs

     total energy              =    -481.48170204 Ry
     estimated scf accuracy    <       0.00000333 Ry

     total charge of GC-SCF    =       2.77134356 e
     the Fermi energy          =      -4.88623938 eV
                        (error :       0.01776062 eV)
     electrostatic embedding   =      -1.33146095 Ry
     cavitation energy         =       0.01934203 Ry
     electrolyte free energy   =      -0.02750091 Ry
     correction to one-el term =     -79.12344656 Ry

     iteration # 18     ecut=    80.00 Ry     beta= 0.20
     Davidson diagonalization with overlap

---- Real-time Memory Report at c_bands before calling an iterative solver
           439 MiB given to the printing process from OS
             0 MiB allocation reported by mallinfo(arena+hblkhd)
        478090 MiB available memory on the node where the printing process lives
------------------
     ethr =  3.57E-09,  avg # of iterations = 10.9

     negative rho (up, down):  5.368E-04 0.000E+00

     add environment contribution to local potential

     total cpu time spent up to now is      426.8 secs

     total energy              =    -481.48165407 Ry
     estimated scf accuracy    <       0.00000109 Ry

     total charge of GC-SCF    =       2.77570505 e
     the Fermi energy          =      -4.89607887 eV
                        (error :       0.00792113 eV)
     electrostatic embedding   =      -1.34927654 Ry
     cavitation energy         =       0.01934203 Ry
     electrolyte free energy   =      -0.02783468 Ry
     correction to one-el term =     -79.62328359 Ry

     iteration # 19     ecut=    80.00 Ry     beta= 0.20
     Davidson diagonalization with overlap

---- Real-time Memory Report at c_bands before calling an iterative solver
           439 MiB given to the printing process from OS
             0 MiB allocation reported by mallinfo(arena+hblkhd)
        478082 MiB available memory on the node where the printing process lives
------------------
     ethr =  1.17E-09,  avg # of iterations = 12.4

     negative rho (up, down):  4.762E-04 0.000E+00

     add environment contribution to local potential

     total cpu time spent up to now is      446.6 secs

     total energy              =    -481.48161456 Ry
     estimated scf accuracy    <       0.00000078 Ry

     total charge of GC-SCF    =       2.77648906 e
     the Fermi energy          =      -4.90085534 eV
                        (error :       0.00314466 eV)
     electrostatic embedding   =      -1.35409253 Ry
     cavitation energy         =       0.01934203 Ry
     electrolyte free energy   =      -0.02792458 Ry
     correction to one-el term =     -79.76656516 Ry

     iteration # 20     ecut=    80.00 Ry     beta= 0.20
     Davidson diagonalization with overlap

---- Real-time Memory Report at c_bands before calling an iterative solver
           439 MiB given to the printing process from OS
             0 MiB allocation reported by mallinfo(arena+hblkhd)
        478074 MiB available memory on the node where the printing process lives
------------------
     ethr =  8.38E-10,  avg # of iterations =  7.8

     negative rho (up, down):  3.713E-04 0.000E+00

     add environment contribution to local potential

     total cpu time spent up to now is      461.2 secs

     total energy              =    -481.48160266 Ry
     estimated scf accuracy    <       0.00000061 Ry

     total charge of GC-SCF    =       2.77696434 e
     the Fermi energy          =      -4.90180774 eV
                        (error :       0.00219226 eV)
     electrostatic embedding   =      -1.35493594 Ry
     cavitation energy         =       0.01934203 Ry
     electrolyte free energy   =      -0.02794101 Ry
     correction to one-el term =     -79.79202044 Ry

     iteration # 21     ecut=    80.00 Ry     beta= 0.20
     Davidson diagonalization with overlap

---- Real-time Memory Report at c_bands before calling an iterative solver
           439 MiB given to the printing process from OS
             0 MiB allocation reported by mallinfo(arena+hblkhd)
        478059 MiB available memory on the node where the printing process lives
------------------
     ethr =  6.60E-10,  avg # of iterations =  8.9

     negative rho (up, down):  3.665E-04 0.000E+00

     add environment contribution to local potential

     total cpu time spent up to now is      477.4 secs

     total energy              =    -481.48160790 Ry
     estimated scf accuracy    <       0.00000020 Ry

     total charge of GC-SCF    =       2.77672158 e
     the Fermi energy          =      -4.90101823 eV
                        (error :       0.00298177 eV)
     electrostatic embedding   =      -1.35575502 Ry
     cavitation energy         =       0.01934203 Ry
     electrolyte free energy   =      -0.02795232 Ry
     correction to one-el term =     -79.81671146 Ry

     iteration # 22     ecut=    80.00 Ry     beta= 0.20
     Davidson diagonalization with overlap

---- Real-time Memory Report at c_bands before calling an iterative solver
           439 MiB given to the printing process from OS
             0 MiB allocation reported by mallinfo(arena+hblkhd)
        478070 MiB available memory on the node where the printing process lives
------------------
     ethr =  2.20E-10,  avg # of iterations =  7.0

     negative rho (up, down):  3.633E-04 0.000E+00

     add environment contribution to local potential

     total cpu time spent up to now is      492.3 secs

     total energy              =    -481.48160894 Ry
     estimated scf accuracy    <       0.00000012 Ry

     total charge of GC-SCF    =       2.77586757 e
     the Fermi energy          =      -4.90125259 eV
                        (error :       0.00274741 eV)
     electrostatic embedding   =      -1.35545144 Ry
     cavitation energy         =       0.01934203 Ry
     electrolyte free energy   =      -0.02794735 Ry
     correction to one-el term =     -79.80820235 Ry

     iteration # 23     ecut=    80.00 Ry     beta= 0.20
     Davidson diagonalization with overlap

---- Real-time Memory Report at c_bands before calling an iterative solver
           439 MiB given to the printing process from OS
             0 MiB allocation reported by mallinfo(arena+hblkhd)
        478068 MiB available memory on the node where the printing process lives
------------------
     ethr =  1.32E-10,  avg # of iterations =  9.0

     negative rho (up, down):  3.690E-04 0.000E+00

     add environment contribution to local potential

     total cpu time spent up to now is      508.6 secs

     total energy              =    -481.48161598 Ry
     estimated scf accuracy    <       0.00000009 Ry

     total charge of GC-SCF    =       2.77700297 e
     the Fermi energy          =      -4.90015584 eV
                        (error :       0.00384416 eV)
     electrostatic embedding   =      -1.35458192 Ry
     cavitation energy         =       0.01934203 Ry
     electrolyte free energy   =      -0.02793006 Ry
     correction to one-el term =     -79.78431058 Ry

     iteration # 24     ecut=    80.00 Ry     beta= 0.20
     Davidson diagonalization with overlap

---- Real-time Memory Report at c_bands before calling an iterative solver
           439 MiB given to the printing process from OS
             0 MiB allocation reported by mallinfo(arena+hblkhd)
        478063 MiB available memory on the node where the printing process lives
------------------
     ethr =  9.94E-11,  avg # of iterations =  9.9

     negative rho (up, down):  3.971E-04 0.000E+00

     add environment contribution to local potential

     total cpu time spent up to now is      525.1 secs

     total energy              =    -481.48160695 Ry
     estimated scf accuracy    <       0.00000007 Ry

     total charge of GC-SCF    =       2.78110575 e
     the Fermi energy          =      -4.90116272 eV
                        (error :       0.00283728 eV)
     electrostatic embedding   =      -1.35565415 Ry
     cavitation energy         =       0.01934203 Ry
     electrolyte free energy   =      -0.02795258 Ry
     correction to one-el term =     -79.81387718 Ry

     iteration # 25     ecut=    80.00 Ry     beta= 0.20
     Davidson diagonalization with overlap

---- Real-time Memory Report at c_bands before calling an iterative solver
           439 MiB given to the printing process from OS
             0 MiB allocation reported by mallinfo(arena+hblkhd)
        478048 MiB available memory on the node where the printing process lives
------------------
     ethr =  7.68E-11,  avg # of iterations = 16.0

     negative rho (up, down):  4.046E-04 0.000E+00

     add environment contribution to local potential

     total cpu time spent up to now is      545.5 secs

     total energy              =    -481.48157596 Ry
     estimated scf accuracy    <       0.00000004 Ry

     total charge of GC-SCF    =       2.78241262 e
     the Fermi energy          =      -4.90478321 eV
                        (error :       0.00078321 eV)
     electrostatic embedding   =      -1.35960057 Ry
     cavitation energy         =       0.01934203 Ry
     electrolyte free energy   =      -0.02803425 Ry
     correction to one-el term =     -79.92128513 Ry

     iteration # 26     ecut=    80.00 Ry     beta= 0.20
     Davidson diagonalization with overlap

---- Real-time Memory Report at c_bands before calling an iterative solver
           439 MiB given to the printing process from OS
             0 MiB allocation reported by mallinfo(arena+hblkhd)
        478044 MiB available memory on the node where the printing process lives
------------------
     ethr =  4.43E-11,  avg # of iterations = 11.0

     negative rho (up, down):  3.891E-04 0.000E+00

     add environment contribution to local potential

     total cpu time spent up to now is      563.5 secs

     total energy              =    -481.48156546 Ry
     estimated scf accuracy    <       0.00000003 Ry

     total charge of GC-SCF    =       2.78090106 e
     the Fermi energy          =      -4.90587974 eV
                        (error :       0.00187974 eV)
     electrostatic embedding   =      -1.36087871 Ry
     cavitation energy         =       0.01934203 Ry
     electrolyte free energy   =      -0.02806036 Ry
     correction to one-el term =     -79.95604877 Ry

     iteration # 27     ecut=    80.00 Ry     beta= 0.20
     Davidson diagonalization with overlap

---- Real-time Memory Report at c_bands before calling an iterative solver
           439 MiB given to the printing process from OS
             0 MiB allocation reported by mallinfo(arena+hblkhd)
        478039 MiB available memory on the node where the printing process lives
------------------
     ethr =  3.48E-11,  avg # of iterations = 11.1

     negative rho (up, down):  3.905E-04 0.000E+00

     add environment contribution to local potential

     total cpu time spent up to now is      581.9 secs

     total energy              =    -481.48157428 Ry
     estimated scf accuracy    <       0.00000001 Ry

     total charge of GC-SCF    =       2.78076567 e
     the Fermi energy          =      -4.90496396 eV
                        (error :       0.00096396 eV)
     electrostatic embedding   =      -1.35944258 Ry
     cavitation energy         =       0.01934203 Ry
     electrolyte free energy   =      -0.02803036 Ry
     correction to one-el term =     -79.91711532 Ry

     iteration # 28     ecut=    80.00 Ry     beta= 0.20
     Davidson diagonalization with overlap

---- Real-time Memory Report at c_bands before calling an iterative solver
           439 MiB given to the printing process from OS
             0 MiB allocation reported by mallinfo(arena+hblkhd)
        478014 MiB available memory on the node where the printing process lives
------------------
     ethr =  1.56E-11,  avg # of iterations =  9.0

     negative rho (up, down):  3.887E-04 0.000E+00

     add environment contribution to local potential

     total cpu time spent up to now is      597.3 secs

     total energy              =    -481.48157318 Ry
     estimated scf accuracy    <          9.6E-09 Ry

     total charge of GC-SCF    =       2.78087516 e
     the Fermi energy          =      -4.90517517 eV
                        (error :       0.00117517 eV)
     electrostatic embedding   =      -1.35930522 Ry
     cavitation energy         =       0.01934203 Ry
     electrolyte free energy   =      -0.02802768 Ry
     correction to one-el term =     -79.91331612 Ry

     iteration # 29     ecut=    80.00 Ry     beta= 0.20
     Davidson diagonalization with overlap

---- Real-time Memory Report at c_bands before calling an iterative solver
           439 MiB given to the printing process from OS
             0 MiB allocation reported by mallinfo(arena+hblkhd)
        478015 MiB available memory on the node where the printing process lives
------------------
     ethr =  1.03E-11,  avg # of iterations =  6.1

     negative rho (up, down):  3.875E-04 0.000E+00

     add environment contribution to local potential

     total cpu time spent up to now is      611.5 secs

     total energy              =    -481.48157450 Ry
     estimated scf accuracy    <          7.0E-09 Ry

     total charge of GC-SCF    =       2.78088009 e
     the Fermi energy          =      -4.90497580 eV
                        (error :       0.00097580 eV)
     electrostatic embedding   =      -1.35942550 Ry
     cavitation energy         =       0.01934203 Ry
     electrolyte free energy   =      -0.02802980 Ry
     correction to one-el term =     -79.91641599 Ry

     iteration # 30     ecut=    80.00 Ry     beta= 0.20
     Davidson diagonalization with overlap

---- Real-time Memory Report at c_bands before calling an iterative solver
           439 MiB given to the printing process from OS
             0 MiB allocation reported by mallinfo(arena+hblkhd)
        478007 MiB available memory on the node where the printing process lives
------------------
     ethr =  7.52E-12,  avg # of iterations =  4.5

     negative rho (up, down):  3.870E-04 0.000E+00

     add environment contribution to local potential

     total cpu time spent up to now is      623.7 secs

     total energy              =    -481.48157456 Ry
     estimated scf accuracy    <          6.7E-09 Ry

     total charge of GC-SCF    =       2.78076623 e
     the Fermi energy          =      -4.90496221 eV
                        (error :       0.00096221 eV)
     electrostatic embedding   =      -1.35943033 Ry
     cavitation energy         =       0.01934203 Ry
     electrolyte free energy   =      -0.02802990 Ry
     correction to one-el term =     -79.91659940 Ry

     iteration # 31     ecut=    80.00 Ry     beta= 0.20
     Davidson diagonalization with overlap

---- Real-time Memory Report at c_bands before calling an iterative solver
           439 MiB given to the printing process from OS
             0 MiB allocation reported by mallinfo(arena+hblkhd)
        478002 MiB available memory on the node where the printing process lives
------------------
     ethr =  7.16E-12,  avg # of iterations =  8.4

     negative rho (up, down):  3.836E-04 0.000E+00

     add environment contribution to local potential

     total cpu time spent up to now is      638.6 secs

     total energy              =    -481.48157483 Ry
     estimated scf accuracy    <          6.0E-09 Ry

     total charge of GC-SCF    =       2.78046924 e
     the Fermi energy          =      -4.90492142 eV
                        (error :       0.00092142 eV)
     electrostatic embedding   =      -1.35931449 Ry
     cavitation energy         =       0.01934203 Ry
     electrolyte free energy   =      -0.02802765 Ry
     correction to one-el term =     -79.91362308 Ry

     iteration # 32     ecut=    80.00 Ry     beta= 0.20
     Davidson diagonalization with overlap

---- Real-time Memory Report at c_bands before calling an iterative solver
           439 MiB given to the printing process from OS
             0 MiB allocation reported by mallinfo(arena+hblkhd)
        478000 MiB available memory on the node where the printing process lives
------------------
     ethr =  6.49E-12,  avg # of iterations =  9.0

     negative rho (up, down):  3.803E-04 0.000E+00

     add environment contribution to local potential

     total cpu time spent up to now is      655.0 secs

     total energy              =    -481.48157768 Ry
     estimated scf accuracy    <          4.1E-09 Ry

     total charge of GC-SCF    =       2.78013455 e
     the Fermi energy          =      -4.90460183 eV
                        (error :       0.00060183 eV)
     electrostatic embedding   =      -1.35901639 Ry
     cavitation energy         =       0.01934203 Ry
     electrolyte free energy   =      -0.02802168 Ry
     correction to one-el term =     -79.90531464 Ry

     iteration # 33     ecut=    80.00 Ry     beta= 0.20
     Davidson diagonalization with overlap

---- Real-time Memory Report at c_bands before calling an iterative solver
           439 MiB given to the printing process from OS
             0 MiB allocation reported by mallinfo(arena+hblkhd)
        478001 MiB available memory on the node where the printing process lives
------------------
     ethr =  4.42E-12,  avg # of iterations =  8.8

     negative rho (up, down):  3.798E-04 0.000E+00

     add environment contribution to local potential

     total cpu time spent up to now is      671.7 secs

     total energy              =    -481.48158109 Ry
     estimated scf accuracy    <          1.8E-09 Ry

     total charge of GC-SCF    =       2.78001530 e
     the Fermi energy          =      -4.90427090 eV
                        (error :       0.00027090 eV)
     electrostatic embedding   =      -1.35867531 Ry
     cavitation energy         =       0.01934203 Ry
     electrolyte free energy   =      -0.02801490 Ry
     correction to one-el term =     -79.89558573 Ry

     iteration # 34     ecut=    80.00 Ry     beta= 0.20
     Davidson diagonalization with overlap

---- Real-time Memory Report at c_bands before calling an iterative solver
           439 MiB given to the printing process from OS
             0 MiB allocation reported by mallinfo(arena+hblkhd)
        478000 MiB available memory on the node where the printing process lives
------------------
     ethr =  1.97E-12,  avg # of iterations =  7.9

     negative rho (up, down):  3.835E-04 0.000E+00

     add environment contribution to local potential

     total cpu time spent up to now is      686.7 secs

     total energy              =    -481.48158259 Ry
     estimated scf accuracy    <          1.1E-09 Ry

     total charge of GC-SCF    =       2.78006879 e
     the Fermi energy          =      -4.90412328 eV
                        (error :       0.00012328 eV)
     electrostatic embedding   =      -1.35854895 Ry
     cavitation energy         =       0.01934203 Ry
     electrolyte free energy   =      -0.02801244 Ry
     correction to one-el term =     -79.89188702 Ry

     iteration # 35     ecut=    80.00 Ry     beta= 0.20
     Davidson diagonalization with overlap

---- Real-time Memory Report at c_bands before calling an iterative solver
           439 MiB given to the printing process from OS
             0 MiB allocation reported by mallinfo(arena+hblkhd)
        477971 MiB available memory on the node where the printing process lives
------------------
     ethr =  1.22E-12,  avg # of iterations = 10.8

     negative rho (up, down):  3.848E-04 0.000E+00

     add environment contribution to local potential

     total cpu time spent up to now is      703.8 secs

     total energy              =    -481.48158271 Ry
     estimated scf accuracy    <          4.6E-10 Ry

     total charge of GC-SCF    =       2.78004885 e
     the Fermi energy          =      -4.90410234 eV
                        (error :       0.00010234 eV)
     electrostatic embedding   =      -1.35858502 Ry
     cavitation energy         =       0.01934203 Ry
     electrolyte free energy   =      -0.02801341 Ry
     correction to one-el term =     -79.89279170 Ry

     iteration # 36     ecut=    80.00 Ry     beta= 0.20
     Davidson diagonalization with overlap

---- Real-time Memory Report at c_bands before calling an iterative solver
           439 MiB given to the printing process from OS
             0 MiB allocation reported by mallinfo(arena+hblkhd)
        477951 MiB available memory on the node where the printing process lives
------------------
     ethr =  4.91E-13,  avg # of iterations = 14.5

     negative rho (up, down):  3.828E-04 0.000E+00

     add environment contribution to local potential

     total cpu time spent up to now is      725.1 secs

     total energy              =    -481.48158316 Ry
     estimated scf accuracy    <          2.0E-10 Ry

     total charge of GC-SCF    =       2.78005219 e
     the Fermi energy          =      -4.90404470 eV
                        (error :       0.00004470 eV)
     electrostatic embedding   =      -1.35855910 Ry
     cavitation energy         =       0.01934203 Ry
     electrolyte free energy   =      -0.02801296 Ry
     correction to one-el term =     -79.89203476 Ry

     iteration # 37     ecut=    80.00 Ry     beta= 0.20
     Davidson diagonalization with overlap

---- Real-time Memory Report at c_bands before calling an iterative solver
           439 MiB given to the printing process from OS
             0 MiB allocation reported by mallinfo(arena+hblkhd)
        477960 MiB available memory on the node where the printing process lives
------------------
     ethr =  2.19E-13,  avg # of iterations = 10.1

     negative rho (up, down):  3.819E-04 0.000E+00

     add environment contribution to local potential

     total cpu time spent up to now is      742.4 secs

     total energy              =    -481.48158287 Ry
     estimated scf accuracy    <          8.4E-11 Ry

     total charge of GC-SCF    =       2.78002663 e
     the Fermi energy          =      -4.90407874 eV
                        (error :       0.00007874 eV)
     electrostatic embedding   =      -1.35857111 Ry
     cavitation energy         =       0.01934203 Ry
     electrolyte free energy   =      -0.02801308 Ry
     correction to one-el term =     -79.89247626 Ry

     iteration # 38     ecut=    80.00 Ry     beta= 0.20
     Davidson diagonalization with overlap

---- Real-time Memory Report at c_bands before calling an iterative solver
           439 MiB given to the printing process from OS
             0 MiB allocation reported by mallinfo(arena+hblkhd)
        477960 MiB available memory on the node where the printing process lives
------------------
     ethr =  1.00E-13,  avg # of iterations = 10.9

     negative rho (up, down):  3.812E-04 0.000E+00

     add environment contribution to local potential

     total cpu time spent up to now is      759.8 secs

     total energy              =    -481.48158299 Ry
     estimated scf accuracy    <          4.9E-11 Ry

     total charge of GC-SCF    =       2.77998372 e
     the Fermi energy          =      -4.90406082 eV
                        (error :       0.00006082 eV)
     electrostatic embedding   =      -1.35854976 Ry
     cavitation energy         =       0.01934203 Ry
     electrolyte free energy   =      -0.02801259 Ry
     correction to one-el term =     -79.89193226 Ry

     iteration # 39     ecut=    80.00 Ry     beta= 0.20
     Davidson diagonalization with overlap

---- Real-time Memory Report at c_bands before calling an iterative solver
           439 MiB given to the printing process from OS
             0 MiB allocation reported by mallinfo(arena+hblkhd)
        477964 MiB available memory on the node where the printing process lives
------------------
     ethr =  1.00E-13,  avg # of iterations = 10.0

     negative rho (up, down):  3.808E-04 0.000E+00

     add environment contribution to local potential

     total cpu time spent up to now is      776.3 secs

     total energy              =    -481.48158326 Ry
     estimated scf accuracy    <          2.3E-11 Ry

     total charge of GC-SCF    =       2.77997330 e
     the Fermi energy          =      -4.90403335 eV
                        (error :       0.00003335 eV)
     electrostatic embedding   =      -1.35850957 Ry
     cavitation energy         =       0.01934203 Ry
     electrolyte free energy   =      -0.02801174 Ry
     correction to one-el term =     -79.89084248 Ry

     iteration # 40     ecut=    80.00 Ry     beta= 0.20
     Davidson diagonalization with overlap

---- Real-time Memory Report at c_bands before calling an iterative solver
           439 MiB given to the printing process from OS
             0 MiB allocation reported by mallinfo(arena+hblkhd)
        477990 MiB available memory on the node where the printing process lives
------------------
     ethr =  1.00E-13,  avg # of iterations =  8.5

     negative rho (up, down):  3.804E-04 0.000E+00

     add environment contribution to local potential

     total cpu time spent up to now is      791.2 secs

     total energy              =    -481.48158330 Ry
     estimated scf accuracy    <          1.7E-11 Ry

     total charge of GC-SCF    =       2.77995316 e
     the Fermi energy          =      -4.90402535 eV
                        (error :       0.00002535 eV)
     electrostatic embedding   =      -1.35850134 Ry
     cavitation energy         =       0.01934203 Ry
     electrolyte free energy   =      -0.02801154 Ry
     correction to one-el term =     -79.89064870 Ry

     iteration # 41     ecut=    80.00 Ry     beta= 0.20
     Davidson diagonalization with overlap

---- Real-time Memory Report at c_bands before calling an iterative solver
           439 MiB given to the printing process from OS
             0 MiB allocation reported by mallinfo(arena+hblkhd)
        477992 MiB available memory on the node where the printing process lives
------------------
     ethr =  1.00E-13,  avg # of iterations =  9.3

     negative rho (up, down):  3.805E-04 0.000E+00

     add environment contribution to local potential

     total cpu time spent up to now is      806.9 secs

     total energy              =    -481.48158349 Ry
     estimated scf accuracy    <          8.4E-12 Ry

     total charge of GC-SCF    =       2.77995306 e
     the Fermi energy          =      -4.90400351 eV
                        (error :       0.00000351 eV)
     electrostatic embedding   =      -1.35848193 Ry
     cavitation energy         =       0.01934203 Ry
     electrolyte free energy   =      -0.02801114 Ry
     correction to one-el term =     -79.89011069 Ry

     iteration # 42     ecut=    80.00 Ry     beta= 0.20
     Davidson diagonalization with overlap

---- Real-time Memory Report at c_bands before calling an iterative solver
           439 MiB given to the printing process from OS
             0 MiB allocation reported by mallinfo(arena+hblkhd)
        477986 MiB available memory on the node where the printing process lives
------------------
     ethr =  1.00E-13,  avg # of iterations =  5.5

     negative rho (up, down):  3.805E-04 0.000E+00

     add environment contribution to local potential

     total cpu time spent up to now is      819.7 secs

     total energy              =    -481.48158353 Ry
     estimated scf accuracy    <          3.0E-12 Ry

     total charge of GC-SCF    =       2.77995550 e
     the Fermi energy          =      -4.90400118 eV
                        (error :       0.00000118 eV)
     electrostatic embedding   =      -1.35848064 Ry
     cavitation energy         =       0.01934203 Ry
     electrolyte free energy   =      -0.02801113 Ry
     correction to one-el term =     -79.89005089 Ry

     iteration # 43     ecut=    80.00 Ry     beta= 0.20
     Davidson diagonalization with overlap

---- Real-time Memory Report at c_bands before calling an iterative solver
           439 MiB given to the printing process from OS
             0 MiB allocation reported by mallinfo(arena+hblkhd)
        477972 MiB available memory on the node where the printing process lives
------------------
     ethr =  1.00E-13,  avg # of iterations =  3.3

     negative rho (up, down):  3.805E-04 0.000E+00

     add environment contribution to local potential

     total cpu time spent up to now is      831.1 secs

     total energy              =    -481.48158350 Ry
     estimated scf accuracy    <          2.4E-12 Ry

     total charge of GC-SCF    =       2.77995662 e
     the Fermi energy          =      -4.90400512 eV
                        (error :       0.00000512 eV)
     electrostatic embedding   =      -1.35848312 Ry
     cavitation energy         =       0.01934203 Ry
     electrolyte free energy   =      -0.02801118 Ry
     correction to one-el term =     -79.89012234 Ry

     iteration # 44     ecut=    80.00 Ry     beta= 0.20
     Davidson diagonalization with overlap

---- Real-time Memory Report at c_bands before calling an iterative solver
           439 MiB given to the printing process from OS
             0 MiB allocation reported by mallinfo(arena+hblkhd)
        477989 MiB available memory on the node where the printing process lives
------------------
     ethr =  1.00E-13,  avg # of iterations =  4.0

     negative rho (up, down):  3.804E-04 0.000E+00

     add environment contribution to local potential

     total cpu time spent up to now is      843.2 secs

     total energy              =    -481.48158347 Ry
     estimated scf accuracy    <          1.7E-12 Ry

     total charge of GC-SCF    =       2.77995068 e
     the Fermi energy          =      -4.90400838 eV
                        (error :       0.00000838 eV)
     electrostatic embedding   =      -1.35848405 Ry
     cavitation energy         =       0.01934203 Ry
     electrolyte free energy   =      -0.02801120 Ry
     correction to one-el term =     -79.89014879 Ry

     iteration # 45     ecut=    80.00 Ry     beta= 0.20
     Davidson diagonalization with overlap

---- Real-time Memory Report at c_bands before calling an iterative solver
           439 MiB given to the printing process from OS
             0 MiB allocation reported by mallinfo(arena+hblkhd)
        477974 MiB available memory on the node where the printing process lives
------------------
     ethr =  1.00E-13,  avg # of iterations =  4.4

     negative rho (up, down):  3.803E-04 0.000E+00

     add environment contribution to local potential

     total cpu time spent up to now is      855.2 secs

     total energy              =    -481.48158352 Ry
     estimated scf accuracy    <          9.6E-13 Ry

     total charge of GC-SCF    =       2.77994420 e
     the Fermi energy          =      -4.90400340 eV
                        (error :       0.00000340 eV)
     electrostatic embedding   =      -1.35847837 Ry
     cavitation energy         =       0.01934203 Ry
     electrolyte free energy   =      -0.02801109 Ry
     correction to one-el term =     -79.88999717 Ry

     iteration # 46     ecut=    80.00 Ry     beta= 0.20
     Davidson diagonalization with overlap

---- Real-time Memory Report at c_bands before calling an iterative solver
           439 MiB given to the printing process from OS
             0 MiB allocation reported by mallinfo(arena+hblkhd)
        477963 MiB available memory on the node where the printing process lives
------------------
     ethr =  1.00E-13,  avg # of iterations =  5.6

     negative rho (up, down):  3.803E-04 0.000E+00

     add environment contribution to local potential

     total cpu time spent up to now is      867.9 secs

     total energy              =    -481.48158355 Ry
     estimated scf accuracy    <          3.7E-13 Ry

     total charge of GC-SCF    =       2.77994310 e
     the Fermi energy          =      -4.90399916 eV
                        (error :       0.00000084 eV)
     electrostatic embedding   =      -1.35847219 Ry
     cavitation energy         =       0.01934203 Ry
     electrolyte free energy   =      -0.02801096 Ry
     correction to one-el term =     -79.88983384 Ry

     iteration # 47     ecut=    80.00 Ry     beta= 0.20
     Davidson diagonalization with overlap

---- Real-time Memory Report at c_bands before calling an iterative solver
           439 MiB given to the printing process from OS
             0 MiB allocation reported by mallinfo(arena+hblkhd)
        477969 MiB available memory on the node where the printing process lives
------------------
     ethr =  1.00E-13,  avg # of iterations =  2.4

     negative rho (up, down):  3.803E-04 0.000E+00

     add environment contribution to local potential

     total cpu time spent up to now is      879.0 secs

     total energy              =    -481.48158356 Ry
     estimated scf accuracy    <          1.9E-13 Ry

     total charge of GC-SCF    =       2.77994220 e
     the Fermi energy          =      -4.90399743 eV
                        (error :       0.00000257 eV)
     electrostatic embedding   =      -1.35847097 Ry
     cavitation energy         =       0.01934203 Ry
     electrolyte free energy   =      -0.02801093 Ry
     correction to one-el term =     -79.88979936 Ry

     iteration # 48     ecut=    80.00 Ry     beta= 0.20
     Davidson diagonalization with overlap

---- Real-time Memory Report at c_bands before calling an iterative solver
           439 MiB given to the printing process from OS
             0 MiB allocation reported by mallinfo(arena+hblkhd)
        477973 MiB available memory on the node where the printing process lives
------------------
     ethr =  1.00E-13,  avg # of iterations =  3.3

     negative rho (up, down):  3.803E-04 0.000E+00

     add environment contribution to local potential

     total cpu time spent up to now is      890.7 secs

     total energy              =    -481.48158358 Ry
     estimated scf accuracy    <          8.9E-14 Ry

     total charge of GC-SCF    =       2.77994223 e
     the Fermi energy          =      -4.90399567 eV
                        (error :       0.00000433 eV)
     electrostatic embedding   =      -1.35846974 Ry
     cavitation energy         =       0.01934203 Ry
     electrolyte free energy   =      -0.02801091 Ry
     correction to one-el term =     -79.88976128 Ry

     iteration # 49     ecut=    80.00 Ry     beta= 0.20
     Davidson diagonalization with overlap

---- Real-time Memory Report at c_bands before calling an iterative solver
           439 MiB given to the printing process from OS
             0 MiB allocation reported by mallinfo(arena+hblkhd)
        477970 MiB available memory on the node where the printing process lives
------------------
     ethr =  1.00E-13,  avg # of iterations =  1.1

     negative rho (up, down):  3.803E-04 0.000E+00

     add environment contribution to local potential

     total cpu time spent up to now is      901.4 secs

     total energy              =    -481.48158358 Ry
     estimated scf accuracy    <          5.7E-14 Ry

     total charge of GC-SCF    =       2.77994266 e
     the Fermi energy          =      -4.90399576 eV
                        (error :       0.00000424 eV)
     electrostatic embedding   =      -1.35846975 Ry
     cavitation energy         =       0.01934203 Ry
     electrolyte free energy   =      -0.02801091 Ry
     correction to one-el term =     -79.88976208 Ry

     iteration # 50     ecut=    80.00 Ry     beta= 0.20
     Davidson diagonalization with overlap

---- Real-time Memory Report at c_bands before calling an iterative solver
           439 MiB given to the printing process from OS
             0 MiB allocation reported by mallinfo(arena+hblkhd)
        477969 MiB available memory on the node where the printing process lives
------------------
     ethr =  1.00E-13,  avg # of iterations =  2.7

     negative rho (up, down):  3.803E-04 0.000E+00

     add environment contribution to local potential

     total cpu time spent up to now is      912.7 secs

     total energy              =    -481.48158358 Ry
     estimated scf accuracy    <          3.8E-14 Ry

     total charge of GC-SCF    =       2.77994348 e
     the Fermi energy          =      -4.90399597 eV
                        (error :       0.00000403 eV)
     electrostatic embedding   =      -1.35847011 Ry
     cavitation energy         =       0.01934203 Ry
     electrolyte free energy   =      -0.02801092 Ry
     correction to one-el term =     -79.88977061 Ry

     iteration # 51     ecut=    80.00 Ry     beta= 0.20
     Davidson diagonalization with overlap

---- Real-time Memory Report at c_bands before calling an iterative solver
           439 MiB given to the printing process from OS
             0 MiB allocation reported by mallinfo(arena+hblkhd)
        477974 MiB available memory on the node where the printing process lives
------------------
     ethr =  1.00E-13,  avg # of iterations =  1.0

     negative rho (up, down):  3.803E-04 0.000E+00

     add environment contribution to local potential

     total cpu time spent up to now is      923.4 secs

     total energy              =    -481.48158357 Ry
     estimated scf accuracy    <          2.6E-14 Ry

     total charge of GC-SCF    =       2.77994428 e
     the Fermi energy          =      -4.90399682 eV
                        (error :       0.00000318 eV)
     electrostatic embedding   =      -1.35847086 Ry
     cavitation energy         =       0.01934203 Ry
     electrolyte free energy   =      -0.02801094 Ry
     correction to one-el term =     -79.88979058 Ry

     iteration # 52     ecut=    80.00 Ry     beta= 0.20
     Davidson diagonalization with overlap

---- Real-time Memory Report at c_bands before calling an iterative solver
           439 MiB given to the printing process from OS
             0 MiB allocation reported by mallinfo(arena+hblkhd)
        477973 MiB available memory on the node where the printing process lives
------------------
     ethr =  1.00E-13,  avg # of iterations =  2.3

     negative rho (up, down):  3.803E-04 0.000E+00

     add environment contribution to local potential

     total cpu time spent up to now is      934.4 secs

     total energy              =    -481.48158356 Ry
     estimated scf accuracy    <          1.6E-14 Ry

     total charge of GC-SCF    =       2.77994487 e
     the Fermi energy          =      -4.90399767 eV
                        (error :       0.00000233 eV)
     electrostatic embedding   =      -1.35847167 Ry
     cavitation energy         =       0.01934203 Ry
     electrolyte free energy   =      -0.02801096 Ry
     correction to one-el term =     -79.88981310 Ry

     iteration # 53     ecut=    80.00 Ry     beta= 0.20
     Davidson diagonalization with overlap

---- Real-time Memory Report at c_bands before calling an iterative solver
           439 MiB given to the printing process from OS
             0 MiB allocation reported by mallinfo(arena+hblkhd)
        477944 MiB available memory on the node where the printing process lives
------------------
     ethr =  1.00E-13,  avg # of iterations =  1.0

     negative rho (up, down):  3.803E-04 0.000E+00

     add environment contribution to local potential

     total cpu time spent up to now is      945.1 secs

     total energy              =    -481.48158356 Ry
     estimated scf accuracy    <          1.2E-14 Ry

     total charge of GC-SCF    =       2.77994555 e
     the Fermi energy          =      -4.90399829 eV
                        (error :       0.00000171 eV)
     electrostatic embedding   =      -1.35847226 Ry
     cavitation energy         =       0.01934203 Ry
     electrolyte free energy   =      -0.02801097 Ry
     correction to one-el term =     -79.88982968 Ry

     iteration # 54     ecut=    80.00 Ry     beta= 0.20
     Davidson diagonalization with overlap

---- Real-time Memory Report at c_bands before calling an iterative solver
           439 MiB given to the printing process from OS
             0 MiB allocation reported by mallinfo(arena+hblkhd)
        477934 MiB available memory on the node where the printing process lives
------------------
     ethr =  1.00E-13,  avg # of iterations =  1.0

     negative rho (up, down):  3.803E-04 0.000E+00

     add environment contribution to local potential

     total cpu time spent up to now is      955.6 secs

[...]
     atom   15 type  1   force =     0.00000000    0.00000000    0.00064285
     atom   16 type  1   force =    -0.00000006    0.00000006    0.00053113
     atom   17 type  1   force =     0.00000000    0.00000000   -0.00052826
     atom   18 type  1   force =     0.00000000   -0.00000000   -0.00063622
     atom   19 type  1   force =     0.00000000    0.00000000   -0.00031310
     atom   20 type  1   force =     0.00000002   -0.00000002    0.00036658
     atom   21 type  1   force =     0.00000000    0.00000000   -0.00037063
     atom   22 type  1   force =    -0.00000002    0.00000002    0.00030764
     atom   23 type  1   force =     0.00000000    0.00000000    0.00064285
     atom   24 type  1   force =     0.00000006   -0.00000006    0.00053113
     atom   25 type  1   force =     0.00000000    0.00000000   -0.00052826
     atom   26 type  1   force =     0.00000000    0.00000000   -0.00063622
     atom   27 type  1   force =     0.00000000    0.00000000   -0.00031316
     atom   28 type  1   force =     0.00000002    0.00000002    0.00036658
     atom   29 type  1   force =     0.00000000    0.00000000   -0.00037052
     atom   30 type  1   force =    -0.00000002   -0.00000002    0.00030764
     atom   31 type  1   force =     0.00000000    0.00000000    0.00064272
     atom   32 type  1   force =     0.00000006    0.00000006    0.00053113
     The non-local contrib.  to forces
     atom    1 type  1   force =     0.00000000    0.00000000   -0.00565156
     atom    2 type  1   force =     0.00000012    0.00000012   -0.08087903
     atom    3 type  1   force =     0.00000000    0.00000000    0.00761445
     atom    4 type  1   force =    -0.00000007   -0.00000007   -0.00491832
     atom    5 type  1   force =     0.00000000    0.00000000    0.00490697
     atom    6 type  1   force =     0.00000017    0.00000017   -0.00762739
     atom    7 type  1   force =     0.00000000    0.00000000    0.08089739
     atom    8 type  1   force =     0.00000013    0.00000013    0.00566048
     atom    9 type  1   force =     0.00000000    0.00000000   -0.00565145
     atom   10 type  1   force =     0.00000012   -0.00000012   -0.08087903
     atom   11 type  1   force =     0.00000000    0.00000000    0.00761453
     atom   12 type  1   force =    -0.00000007    0.00000007   -0.00491832
     atom   13 type  1   force =     0.00000000    0.00000000    0.00490738
     atom   14 type  1   force =     0.00000017   -0.00000017   -0.00762739
     atom   15 type  1   force =     0.00000000    0.00000000    0.08089721
     atom   16 type  1   force =     0.00000013   -0.00000013    0.00566048
     atom   17 type  1   force =     0.00000000    0.00000000   -0.00565145
     atom   18 type  1   force =    -0.00000012    0.00000012   -0.08087903
     atom   19 type  1   force =     0.00000000    0.00000000    0.00761453
     atom   20 type  1   force =     0.00000007   -0.00000007   -0.00491832
     atom   21 type  1   force =     0.00000000    0.00000000    0.00490738
     atom   22 type  1   force =    -0.00000017    0.00000017   -0.00762739
     atom   23 type  1   force =     0.00000000    0.00000000    0.08089721
     atom   24 type  1   force =    -0.00000013    0.00000013    0.00566048
     atom   25 type  1   force =     0.00000000    0.00000000   -0.00565135
     atom   26 type  1   force =    -0.00000012   -0.00000012   -0.08087903
     atom   27 type  1   force =     0.00000000    0.00000000    0.00761452
     atom   28 type  1   force =     0.00000007    0.00000007   -0.00491832
     atom   29 type  1   force =     0.00000000    0.00000000    0.00490741
     atom   30 type  1   force =    -0.00000017   -0.00000017   -0.00762739
     atom   31 type  1   force =     0.00000000    0.00000000    0.08089735
     atom   32 type  1   force =    -0.00000013   -0.00000013    0.00566048
     The ionic contribution  to forces
     atom    1 type  1   force =    -0.00000001   -0.00000001   -9.73647022
     atom    2 type  1   force =     0.00000135    0.00000135  -13.38123123
     atom    3 type  1   force =    -0.00000001   -0.00000001   -1.96072502
     atom    4 type  1   force =    -0.00000075   -0.00000075   -5.93244450
     atom    5 type  1   force =    -0.00000000   -0.00000000    5.93230621
     atom    6 type  1   force =     0.00000203    0.00000203    1.96038916
     atom    7 type  1   force =    -0.00000001   -0.00000001   13.38167218
     atom    8 type  1   force =     0.00000599    0.00000599    9.73647719
     atom    9 type  1   force =    -0.00000001    0.00000001   -9.73646576
     atom   10 type  1   force =     0.00000135   -0.00000135  -13.38123121
     atom   11 type  1   force =    -0.00000001    0.00000001   -1.96074995
     atom   12 type  1   force =    -0.00000075    0.00000075   -5.93244451
     atom   13 type  1   force =    -0.00000000   -0.00000000    5.93239938
     atom   14 type  1   force =     0.00000203   -0.00000203    1.96038916
     atom   15 type  1   force =    -0.00000001    0.00000001   13.38162900
     atom   16 type  1   force =     0.00000599   -0.00000599    9.73647722
     atom   17 type  1   force =     0.00000001   -0.00000001   -9.73646576
     atom   18 type  1   force =    -0.00000135    0.00000135  -13.38123121
     atom   19 type  1   force =     0.00000001   -0.00000001   -1.96074995
     atom   20 type  1   force =     0.00000075   -0.00000075   -5.93244451
     atom   21 type  1   force =    -0.00000000   -0.00000000    5.93239938
     atom   22 type  1   force =    -0.00000203    0.00000203    1.96038916
     atom   23 type  1   force =     0.00000001   -0.00000001   13.38162900
     atom   24 type  1   force =    -0.00000599    0.00000599    9.73647722
     atom   25 type  1   force =     0.00000001    0.00000001   -9.73646089
     atom   26 type  1   force =    -0.00000135   -0.00000135  -13.38123119
     atom   27 type  1   force =     0.00000001    0.00000001   -1.96077406
     atom   28 type  1   force =     0.00000075    0.00000075   -5.93244452
     atom   29 type  1   force =    -0.00000000   -0.00000000    5.93249051
     atom   30 type  1   force =    -0.00000203   -0.00000203    1.96038915
     atom   31 type  1   force =     0.00000001    0.00000001   13.38157334
     atom   32 type  1   force =    -0.00000599   -0.00000599    9.73647723
     The local contribution  to forces
     atom    1 type  1   force =     0.00000407    0.00000407    9.83674716
     atom    2 type  1   force =     0.00000319    0.00000319   13.53135390
     atom    3 type  1   force =     0.00000407    0.00000407    1.97220032
     atom    4 type  1   force =     0.00000550    0.00000550    5.99566092
     atom    5 type  1   force =     0.00000406    0.00000406   -5.99550690
     atom    6 type  1   force =     0.00000221    0.00000221   -1.97184973
     atom    7 type  1   force =     0.00000350    0.00000350  -13.53179566
     atom    8 type  1   force =    -0.00000202   -0.00000202   -9.83674514
     atom    9 type  1   force =     0.00000407    0.00000499    9.83674260
     atom   10 type  1   force =     0.00000319    0.00000624   13.53135271
     atom   11 type  1   force =     0.00000407    0.00000441    1.97222540
     atom   12 type  1   force =     0.00000550    0.00000389    5.99566152
     atom   13 type  1   force =     0.00000406    0.00000383   -5.99560131
     atom   14 type  1   force =     0.00000221    0.00000661   -1.97184973
     atom   15 type  1   force =     0.00000350    0.00000442  -13.53175552
     atom   16 type  1   force =    -0.00000202    0.00001084   -9.83674575
     atom   17 type  1   force =     0.00000499    0.00000407    9.83674260
     atom   18 type  1   force =     0.00000624    0.00000319   13.53135271
     atom   19 type  1   force =     0.00000441    0.00000407    1.97222540
     atom   20 type  1   force =     0.00000389    0.00000550    5.99566152
     atom   21 type  1   force =     0.00000383    0.00000406   -5.99560131
     atom   22 type  1   force =     0.00000661    0.00000221   -1.97184973
     atom   23 type  1   force =     0.00000442    0.00000350  -13.53175552
     atom   24 type  1   force =     0.00001084   -0.00000202   -9.83674575
     atom   25 type  1   force =     0.00000499    0.00000499    9.83673760
     atom   26 type  1   force =     0.00000624    0.00000624   13.53135211
     atom   27 type  1   force =     0.00000441    0.00000441    1.97224971
     atom   28 type  1   force =     0.00000389    0.00000389    5.99566152
     atom   29 type  1   force =     0.00000383    0.00000383   -5.99569330
     atom   30 type  1   force =     0.00000661    0.00000661   -1.97184973
     atom   31 type  1   force =     0.00000442    0.00000442  -13.53170430
     atom   32 type  1   force =     0.00001084    0.00001084   -9.83674575
     The core correction contribution to forces
     atom    1 type  1   force =     0.00000000    0.00000000    0.00000000
     atom    2 type  1   force =     0.00000000    0.00000000    0.00000000
     atom    3 type  1   force =     0.00000000    0.00000000    0.00000000
     atom    4 type  1   force =     0.00000000    0.00000000    0.00000000
     atom    5 type  1   force =     0.00000000    0.00000000    0.00000000
     atom    6 type  1   force =     0.00000000    0.00000000    0.00000000
     atom    7 type  1   force =     0.00000000    0.00000000    0.00000000
     atom    8 type  1   force =     0.00000000    0.00000000    0.00000000
     atom    9 type  1   force =     0.00000000    0.00000000    0.00000000
     atom   10 type  1   force =     0.00000000    0.00000000    0.00000000
     atom   11 type  1   force =     0.00000000    0.00000000    0.00000000
     atom   12 type  1   force =     0.00000000    0.00000000    0.00000000
     atom   13 type  1   force =     0.00000000    0.00000000    0.00000000
     atom   14 type  1   force =     0.00000000    0.00000000    0.00000000
     atom   15 type  1   force =     0.00000000    0.00000000    0.00000000
     atom   16 type  1   force =     0.00000000    0.00000000    0.00000000
     atom   17 type  1   force =     0.00000000    0.00000000    0.00000000
     atom   18 type  1   force =     0.00000000    0.00000000    0.00000000
     atom   19 type  1   force =     0.00000000    0.00000000    0.00000000
     atom   20 type  1   force =     0.00000000    0.00000000    0.00000000
     atom   21 type  1   force =     0.00000000    0.00000000    0.00000000
     atom   22 type  1   force =     0.00000000    0.00000000    0.00000000
     atom   23 type  1   force =     0.00000000    0.00000000    0.00000000
     atom   24 type  1   force =     0.00000000    0.00000000    0.00000000
     atom   25 type  1   force =     0.00000000    0.00000000    0.00000000
     atom   26 type  1   force =     0.00000000    0.00000000    0.00000000
     atom   27 type  1   force =     0.00000000    0.00000000    0.00000000
     atom   28 type  1   force =     0.00000000    0.00000000    0.00000000
     atom   29 type  1   force =     0.00000000    0.00000000    0.00000000
     atom   30 type  1   force =     0.00000000    0.00000000    0.00000000
     atom   31 type  1   force =     0.00000000    0.00000000    0.00000000
     atom   32 type  1   force =     0.00000000    0.00000000    0.00000000
     The Hubbard contrib.    to forces
     atom    1 type  1   force =     0.00000000    0.00000000    0.00000000
     atom    2 type  1   force =     0.00000000    0.00000000    0.00000000
     atom    3 type  1   force =     0.00000000    0.00000000    0.00000000
     atom    4 type  1   force =     0.00000000    0.00000000    0.00000000
     atom    5 type  1   force =     0.00000000    0.00000000    0.00000000
     atom    6 type  1   force =     0.00000000    0.00000000    0.00000000
     atom    7 type  1   force =     0.00000000    0.00000000    0.00000000
     atom    8 type  1   force =     0.00000000    0.00000000    0.00000000
     atom    9 type  1   force =     0.00000000    0.00000000    0.00000000
     atom   10 type  1   force =     0.00000000    0.00000000    0.00000000
     atom   11 type  1   force =     0.00000000    0.00000000    0.00000000
     atom   12 type  1   force =     0.00000000    0.00000000    0.00000000
     atom   13 type  1   force =     0.00000000    0.00000000    0.00000000
     atom   14 type  1   force =     0.00000000    0.00000000    0.00000000
     atom   15 type  1   force =     0.00000000    0.00000000    0.00000000
     atom   16 type  1   force =     0.00000000    0.00000000    0.00000000
     atom   17 type  1   force =     0.00000000    0.00000000    0.00000000
     atom   18 type  1   force =     0.00000000    0.00000000    0.00000000
     atom   19 type  1   force =     0.00000000    0.00000000    0.00000000
     atom   20 type  1   force =     0.00000000    0.00000000    0.00000000
     atom   21 type  1   force =     0.00000000    0.00000000    0.00000000
     atom   22 type  1   force =     0.00000000    0.00000000    0.00000000
     atom   23 type  1   force =     0.00000000    0.00000000    0.00000000
     atom   24 type  1   force =     0.00000000    0.00000000    0.00000000
     atom   25 type  1   force =     0.00000000    0.00000000    0.00000000
     atom   26 type  1   force =     0.00000000    0.00000000    0.00000000
     atom   27 type  1   force =     0.00000000    0.00000000    0.00000000
     atom   28 type  1   force =     0.00000000    0.00000000    0.00000000
     atom   29 type  1   force =     0.00000000    0.00000000    0.00000000
     atom   30 type  1   force =     0.00000000    0.00000000    0.00000000
     atom   31 type  1   force =     0.00000000    0.00000000    0.00000000
     atom   32 type  1   force =     0.00000000    0.00000000    0.00000000
     The SCF correction term to forces
     atom    1 type  1   force =    -0.00000000    0.00000000    0.00000001
     atom    2 type  1   force =     0.00000000    0.00000000    0.00000000
     atom    3 type  1   force =    -0.00000000    0.00000000    0.00000002
     atom    4 type  1   force =    -0.00000000   -0.00000000    0.00000001
     atom    5 type  1   force =    -0.00000000   -0.00000000    0.00000000
     atom    6 type  1   force =    -0.00000000   -0.00000000    0.00000001
     atom    7 type  1   force =    -0.00000000    0.00000000   -0.00000001
     atom    8 type  1   force =     0.00000000    0.00000000   -0.00000000
     atom    9 type  1   force =    -0.00000000    0.00000000    0.00000001
     atom   10 type  1   force =     0.00000000   -0.00000000    0.00000000
     atom   11 type  1   force =     0.00000000   -0.00000000    0.00000002
     atom   12 type  1   force =    -0.00000000    0.00000000    0.00000001
     atom   13 type  1   force =    -0.00000000   -0.00000000    0.00000000
     atom   14 type  1   force =    -0.00000000    0.00000000    0.00000001
     atom   15 type  1   force =    -0.00000000   -0.00000000   -0.00000001
     atom   16 type  1   force =     0.00000000   -0.00000000   -0.00000000
     atom   17 type  1   force =    -0.00000000   -0.00000000    0.00000001
     atom   18 type  1   force =    -0.00000000    0.00000000    0.00000000
     atom   19 type  1   force =     0.00000000    0.00000000    0.00000002
     atom   20 type  1   force =     0.00000000   -0.00000000    0.00000001
     atom   21 type  1   force =    -0.00000000   -0.00000000    0.00000000
     atom   22 type  1   force =     0.00000000   -0.00000000    0.00000001
     atom   23 type  1   force =     0.00000000   -0.00000000   -0.00000001
     atom   24 type  1   force =    -0.00000000    0.00000000   -0.00000000
     atom   25 type  1   force =     0.00000000    0.00000000    0.00000001
     atom   26 type  1   force =    -0.00000000   -0.00000000    0.00000000
     atom   27 type  1   force =     0.00000000   -0.00000000    0.00000002
     atom   28 type  1   force =     0.00000000    0.00000000    0.00000001
     atom   29 type  1   force =    -0.00000000   -0.00000000    0.00000000
     atom   30 type  1   force =     0.00000000    0.00000000    0.00000001
     atom   31 type  1   force =    -0.00000000    0.00000000   -0.00000001
     atom   32 type  1   force =    -0.00000000   -0.00000000   -0.00000000

     Total force =     0.002716     Total SCF correction =     0.000000

     Writing all to output data dir ./Li/Lithium.save/ :
     XML data file
     init_run     :     15.25s CPU     22.30s WALL (       1 calls)
     electrons    :    835.41s CPU   1044.72s WALL (       1 calls)
     forces       :     11.42s CPU     12.27s WALL (       1 calls)

     Called by init_run:
     wfcinit      :      1.44s CPU      1.83s WALL (       1 calls)
     wfcinit:wfcr :      1.34s CPU      1.72s WALL (      11 calls)
     potinit      :      0.72s CPU      0.78s WALL (       1 calls)
     hinit0       :      2.94s CPU      3.23s WALL (       1 calls)

     Called by electrons:
     c_bands      :    487.08s CPU    605.21s WALL (      65 calls)
     sum_band     :     41.27s CPU     55.43s WALL (      65 calls)
     v_of_rho     :      4.46s CPU      5.55s WALL (      66 calls)
     v_h          :      0.40s CPU      0.52s WALL (      66 calls)
     v_xc         :      4.06s CPU      5.02s WALL (      66 calls)
     newd         :      3.16s CPU      5.19s WALL (      66 calls)
     PAW_pot      :      0.49s CPU      0.70s WALL (      66 calls)
     mix_rho      :     11.98s CPU     15.44s WALL (      65 calls)

     Called by c_bands:
     init_us_2    :      6.86s CPU      7.10s WALL (    1452 calls)
     cegterg      :    466.84s CPU    565.01s WALL (     788 calls)

     Called by sum_band:
     sum_band:wei :      0.07s CPU      0.09s WALL (      65 calls)
     sum_band:loo :     38.30s CPU     51.84s WALL (      65 calls)
     sum_band:buf :      0.58s CPU      0.63s WALL (     715 calls)
     sum_band:ini :      3.27s CPU      3.31s WALL (     715 calls)
     sum_band:cal :      6.88s CPU      7.80s WALL (     715 calls)
     sum_band:bec :      0.11s CPU      0.12s WALL (     715 calls)
     addusdens    :      2.01s CPU      2.13s WALL (      65 calls)
                                        0.00s GPU  (      65 calls)
     addusd:skk   :      0.46s CPU      0.46s WALL (      65 calls)
                                        0.00s GPU  (      65 calls)

     Called by *egterg:
     cdiaghg      :    119.87s CPU    124.12s WALL (    7180 calls)
     cegterg:over :     31.49s CPU     35.21s WALL (    6443 calls)
     cegterg:upda :     21.89s CPU     22.35s WALL (    6443 calls)
     cegterg:last :      7.45s CPU      7.52s WALL (     921 calls)
     h_psi        :    250.80s CPU    338.75s WALL (    7242 calls)
     s_psi        :     23.31s CPU     23.66s WALL (    7242 calls)
     g_psi        :      0.39s CPU      0.41s WALL (    6443 calls)

     Called by h_psi:
     h_psi:calbec :     32.65s CPU     38.12s WALL (    7242 calls)
     vloc_psi     :    191.80s CPU    273.44s WALL (    7242 calls)
                                        0.00s GPU  (    7242 calls)
     add_vuspsi   :     25.10s CPU     25.81s WALL (    7242 calls)

     General routines
     calbec       :     39.88s CPU     46.31s WALL (    8001 calls)
     fft          :      4.32s CPU      5.85s WALL (     858 calls)
     ffts         :      8.66s CPU     11.10s WALL (    8003 calls)
     fftw         :    210.56s CPU    301.45s WALL (  413420 calls)
     interpolate  :      1.00s CPU      1.10s WALL (      66 calls)

     Parallel routines

     PAW routines
     PAW_pot      :      0.49s CPU      0.70s WALL (      66 calls)
     PAW_symme    :      0.02s CPU      0.02s WALL (     131 calls)

     Environ routines

     PWSCF        :  14m22.27s CPU  17m59.75s WALL


   This run was terminated on:   1:21:41  20Jan2025            

=------------------------------------------------------------------------------=
   JOB DONE.
=------------------------------------------------------------------------------=
