
     Program PWSCF v.7.4 starts on  5Jan2025 at  3:20: 5 

     This program is part of the open-source Quantum ESPRESSO suite
     for quantum simulation of materials; please cite
         "P. Giannozzi et al., J. Phys.:Condens. Matter 21 395502 (2009);
         "P. Giannozzi et al., J. Phys.:Condens. Matter 29 465901 (2017);
         "P. Giannozzi et al., J. Chem. Phys. 152 154105 (2020);
          URL http://www.quantum-espresso.org", 
     in publications or presentations arising from this work. More details at
     http://www.quantum-espresso.org/quote

     Parallel version (MPI & OpenMP), running on     384 processor cores
     Number of MPI processes:               384
     Threads/MPI process:                     1

     MPI processes distributed on     3 nodes
     489282 MiB available memory on the printing compute node when the environment starts

     Reading input from espresso.pwi
Warning: card &CELL ignored
Warning: card    PRESS_CONV_THR   = 0.1 ignored
Warning: card    CELL_DOFREE      = 'ALL' ignored
Warning: card / ignored
Warning: card &FCP ignored
Warning: card / ignored
Warning: card &RISM ignored
Warning: card / ignored

     Current dimensions of program PWSCF are:
     Max number of different atomic species (ntypx) = 10
     Max number of k-points (npk) =  40000
     Max angular momentum in pseudopotentials (lmaxx) =  4

     IMPORTANT: XC functional enforced from input :
     Exchange-correlation= PBE
                           (   1   4   3   4   0   0   0)
     Any further DFT definition will be discarded
     Please, verify this is what you really want


     Reading input from environ.in:
     * using ionic solvent mode
     * setting boundary derivatives method to SSCS default
     * setting electrolyte-boundary derivatives method to SSCS default

Environ Warning (1001): card EOF ignored

     
     Found identity + (  0.5000 -0.0000  0.0000) symmetry
     This is a supercell, fractional translations are disabled

     K-points division:     npool     =       2
     R & G space division:  proc/nbgrp/npool/nimage =     192
     Subspace diagonalization in iterative solution of the eigenvalue problem:
     a serial algorithm will be used


     Parallelization info
     --------------------
     sticks:   dense  smooth     PW     G-vecs:    dense   smooth      PW
     Min          83      33      8                47331    11965    1600
     Max          84      34      9                47398    12006    1675
     Sum       16113    6449   1713              9095383  2301201  316649

     Using Slab Decomposition



     bravais-lattice index     =           12
     lattice parameter (alat)  =      18.3607  a.u.
     unit-cell volume          =   23801.8584 (a.u.)^3
     number of atoms/cell      =           36
     number of atomic types    =            1
     number of electrons       =       108.00
     number of Kohn-Sham states=           81
     kinetic-energy cutoff     =      80.0000  Ry
     charge density cutoff     =     800.0000  Ry
     scf convergence threshold =      1.0E-06
     mixing beta               =       0.2000
     number of iterations used =            8  local-TF  mixing
     energy convergence thresh.=      1.0E-05
     force convergence thresh. =      3.9E-04
     Exchange-correlation= PBE
                           (   1   4   3   4   0   0   0)
     nstep                     =          999


     ================================================================================

                                  Environ Setup Summary

     ================================================================================

     Please cite

          O. Andreussi, I. Dabo and N. Marzari, J. Chem. Phys. 136, 064102 (2012)
          F. Nattino, M. Truscott, N. Marzari, and O. Andreussi, J. Chem. Phys. 150, 041722 (2019)

     in publications or presentations arising from this work.

     ================================================================================

     Parameters
     ==========

     compensation onset threshold      =               0.1000E+00
     static permittivity               =                    89.90
     surface tension in input (dyn/cm) =                    37.30
     surface tension in internal units =               0.4792E-04

     Solvent Boundary
     ================

     solvent mode                      =                    ionic
     derivatives method                =                   lowmem
     electrolyte derivatives method    =                   lowmem
     numerical core for derivatives    =                      fft
     switching function adopted        =                     SCCS
     density limit for vacuum region   =               0.5000E-02
     density limit for bulk solvent    =               0.1000E-03
     soft-sphere radius mode           =                    bondi
     soft-sphere softness              =                     0.50
     alpha                             =                     1.32

     Electrostatic Setup
     ===================

     electrostatic problem to solve    =                    modpb
     numerical solver adopted          =                   newton
     type of auxiliary density adopted =                     none
     numerical core for poisson        =                      fft
     adopting a nested solver scheme
     inner solver                      =                       cg
     inner core                        =                      fft
     type of pbc corrections           =                parabolic
     numerical core for corrections    =                      1da

     ================================================================================


     >>>>> Grand-Canonical SCF is activated <<<<<
     Initial Total Charge  =     0.000000 e
     Target Fermi Energy   =    -1.404000 eV
     Thr. of Fermi Energy  =     0.001000 eV
     Wave-shift of Kerker  =     0.400000 bohr^-1
     Wave-shift of Hartree =     1.500000 bohr^-1
     Mixing Rate of Fermi  =     0.050000

     celldm(1)=  18.360747  celldm(2)=   0.790569  celldm(3)=   5.127180
     celldm(4)=   0.316228  celldm(5)=   0.000000  celldm(6)=   0.000000

     crystal axes: (cart. coord. in units of alat)
               a(1) = (   1.000000   0.000000   0.000000 )  
               a(2) = (   0.250000   0.750000   0.000000 )  
               a(3) = (   0.000000   0.000000   5.127180 )  

     reciprocal axes: (cart. coord. in units 2 pi/alat)
               b(1) = (  1.000000 -0.333333  0.000000 )  
               b(2) = (  0.000000  1.333333  0.000000 )  
               b(3) = (  0.000000  0.000000  0.195039 )  


     PseudoPot. # 1 for Li read from file:
     /work/e89/e89/ba3g18/Repos/Pseudopotentials/Pslibrary/Li.pbe-sl-kjpaw_psl.1.0.0.UPF
     MD5 check sum: 3f4d2cafebb47c6c3aa8ed472e6f074d
     Pseudo is Projector augmented-wave, Zval =  3.0
     Generated using 'atomic' code by A. Dal Corso  v.7.4
     Shape of augmentation charge: PSQ
     Using radial grid of 1017 points,  4 beta functions with: 
                l(1) =   0
                l(2) =   0
                l(3) =   1
                l(4) =   1
     Q(r) pseudized with 0 coefficients 


     atomic species   valence    mass     pseudopotential
     Li                3.00     6.94000     Li( 1.00)

     No symmetry found


                                    s                        frac. trans.

      isym =  1     identity                                     

 cryst.   s( 1) = (     1          0          0      )
                  (     0          1          0      )
                  (     0          0          1      )

 cart.    s( 1) = (  1.0000000  0.0000000  0.0000000 )
                  (  0.0000000  1.0000000  0.0000000 )
                  (  0.0000000  0.0000000  1.0000000 )


     point group C_1 (1)    
     there are  1 classes
     the character table:

       E    
A      1.00

     the symmetry operations in each class and the name of the first element:

     E        1
          identity                                               

   Cartesian axes

     site n.     atom                  positions (alat units)
         1        Li     tau(   1) = (   0.0000117  -0.0074539   3.0508373  )
         2        Li     tau(   2) = (   0.2500086   0.4103500   2.1273234  )
         3        Li     tau(   3) = (   0.2500247   0.0948254   2.2455187  )
         4        Li     tau(   4) = (   0.5000204   0.4913808   2.3600159  )
         5        Li     tau(   5) = (   0.5000059   0.1697968   2.4653222  )
         6        Li     tau(   6) = (   0.2499960   0.5866275   2.5945649  )
         7        Li     tau(   7) = (   0.2499753   0.2466196   2.7061061  )
         8        Li     tau(   8) = (   0.4999827   0.6651762   2.8376432  )
         9        Li     tau(   9) = (   0.5000028   0.3365338   2.9667801  )
        10        Li     tau(  10) = (   0.2500172   0.6681563   2.2895353  )
        11        Li     tau(  11) = (   0.2500248   0.3367147   2.4210723  )
        12        Li     tau(  12) = (   0.5000034   0.7467050   2.5326170  )
        13        Li     tau(  13) = (   0.4999945   0.4135331   2.6618580  )
        14        Li     tau(  14) = (   0.4999795   0.0919526   2.7671668  )
        15        Li     tau(  15) = (   0.2499745   0.4885087   2.8816614  )
        16        Li     tau(  16) = (   0.2499925   0.1729840   2.9998499  )
        17        Li     tau(  17) = (   0.4999893   0.5907871   2.0763411  )
        18        Li     tau(  18) = (   0.4999976   0.2468040   2.1603979  )
        19        Li     tau(  19) = (   0.5000104  -0.0074554   3.0508384  )
        20        Li     tau(  20) = (   0.7500083   0.4103496   2.1273251  )
        21        Li     tau(  21) = (   0.7500253   0.0948254   2.2455199  )
        22        Li     tau(  22) = (   1.0000199   0.4913811   2.3600166  )
        23        Li     tau(  23) = (   1.0000063   0.1697971   2.4653218  )
        24        Li     tau(  24) = (   0.7499961   0.5866285   2.5945647  )
        25        Li     tau(  25) = (   0.7499754   0.2466192   2.7061078  )
        26        Li     tau(  26) = (   0.9999831   0.6651764   2.8376435  )
        27        Li     tau(  27) = (   1.0000018   0.3365315   2.9667800  )
        28        Li     tau(  28) = (   0.7500171   0.6681565   2.2895351  )
        29        Li     tau(  29) = (   0.7500245   0.3367152   2.4210745  )
        30        Li     tau(  30) = (   1.0000045   0.7467045   2.5326177  )
        31        Li     tau(  31) = (   0.9999934   0.4135333   2.6618582  )
        32        Li     tau(  32) = (   0.9999802   0.0919519   2.7671654  )
        33        Li     tau(  33) = (   0.7499756   0.4885085   2.8816604  )
        34        Li     tau(  34) = (   0.7499907   0.1729833   2.9998516  )
        35        Li     tau(  35) = (   0.9999887   0.5907877   2.0763421  )
        36        Li     tau(  36) = (   0.9999980   0.2468047   2.1603978  )

   Crystallographic axes

     site n.     atom                  positions (cryst. coord.)
         1        Li     tau(   1) = (  0.0024964 -0.0099386  0.5950322  )
         2        Li     tau(   2) = (  0.1132253  0.5471333  0.4149110  )
         3        Li     tau(   3) = (  0.2184162  0.1264338  0.4379637  )
         4        Li     tau(   4) = (  0.3362268  0.6551744  0.4602951  )
         5        Li     tau(   5) = (  0.4434070  0.2263957  0.4808340  )
         6        Li     tau(   6) = (  0.0544535  0.7821700  0.5060413  )
         7        Li     tau(   7) = (  0.1677688  0.3288261  0.5277962  )
         8        Li     tau(   8) = (  0.2782573  0.8869016  0.5534510  )
         9        Li     tau(   9) = (  0.3878248  0.4487117  0.5786378  )
        10        Li     tau(  10) = (  0.0272984  0.8908750  0.4465487  )
        11        Li     tau(  11) = (  0.1377865  0.4489529  0.4722035  )
        12        Li     tau(  12) = (  0.2511018  0.9956067  0.4939591  )
        13        Li     tau(  13) = (  0.3621501  0.5513775  0.5191661  )
        14        Li     tau(  14) = (  0.4693286  0.1226034  0.5397054  )
        15        Li     tau(  15) = (  0.0871382  0.6513449  0.5620363  )
        16        Li     tau(  16) = (  0.1923311  0.2306454  0.5850877  )
        17        Li     tau(  17) = (  0.3030602  0.7877161  0.4049675  )
        18        Li     tau(  18) = (  0.4177296  0.3290719  0.4213618  )
        19        Li     tau(  19) = (  0.5024955 -0.0099405  0.5950324  )
        20        Li     tau(  20) = (  0.6132251  0.5471328  0.4149113  )
        21        Li     tau(  21) = (  0.7184168  0.1264339  0.4379639  )
        22        Li     tau(  22) = (  0.8362262  0.6551748  0.4602953  )
        23        Li     tau(  23) = (  0.9434072  0.2263962  0.4808339  )
        24        Li     tau(  24) = (  0.5544532  0.7821714  0.5060413  )
        25        Li     tau(  25) = (  0.6677690  0.3288256  0.5277965  )
        26        Li     tau(  26) = (  0.7782577  0.8869018  0.5534511  )
        27        Li     tau(  27) = (  0.8878246  0.4487087  0.5786378  )
        28        Li     tau(  28) = (  0.5272983  0.8908753  0.4465486  )
        29        Li     tau(  29) = (  0.6377861  0.4489536  0.4722039  )
        30        Li     tau(  30) = (  0.7511030  0.9956060  0.4939592  )
        31        Li     tau(  31) = (  0.8621490  0.5513777  0.5191661  )
        32        Li     tau(  32) = (  0.9693296  0.1226025  0.5397051  )
        33        Li     tau(  33) = (  0.5871394  0.6513446  0.5620361  )
        34        Li     tau(  34) = (  0.6923296  0.2306444  0.5850880  )
        35        Li     tau(  35) = (  0.8030595  0.7877169  0.4049677  )
        36        Li     tau(  36) = (  0.9177297  0.3290730  0.4213618  )

     number of k points=    32  Marzari-Vanderbilt smearing, width (Ry)=  0.0100
                       cart. coord. in units 2pi/alat
        k(    1) = (   0.0000000   0.0000000   0.0000000), wk =   0.0317460
        k(    2) = (   0.0000000   0.1481481   0.0000000), wk =   0.0634921
        k(    3) = (   0.0000000   0.2962963   0.0000000), wk =   0.0634921
        k(    4) = (   0.0000000   0.4444444   0.0000000), wk =   0.0634921
        k(    5) = (   0.0000000   0.5925926   0.0000000), wk =   0.0634921
        k(    6) = (   0.1428571  -0.0476190   0.0000000), wk =   0.0634921
        k(    7) = (   0.1428571   0.1005291   0.0000000), wk =   0.0634921
        k(    8) = (   0.1428571   0.2486772   0.0000000), wk =   0.0634921
        k(    9) = (   0.1428571   0.3968254   0.0000000), wk =   0.0634921
        k(   10) = (   0.1428571   0.5449735   0.0000000), wk =   0.0634921
        k(   11) = (   0.1428571  -0.6402116   0.0000000), wk =   0.0634921
        k(   12) = (   0.1428571  -0.4920635   0.0000000), wk =   0.0634921
        k(   13) = (   0.1428571  -0.3439153   0.0000000), wk =   0.0634921
        k(   14) = (   0.1428571  -0.1957672   0.0000000), wk =   0.0634921
        k(   15) = (   0.2857143  -0.0952381   0.0000000), wk =   0.0634921
        k(   16) = (   0.2857143   0.0529101   0.0000000), wk =   0.0634921
        k(   17) = (   0.2857143   0.2010582   0.0000000), wk =   0.0634921
        k(   18) = (   0.2857143   0.3492063   0.0000000), wk =   0.0634921
        k(   19) = (   0.2857143   0.4973545   0.0000000), wk =   0.0634921
        k(   20) = (   0.2857143  -0.6878307   0.0000000), wk =   0.0634921
        k(   21) = (   0.2857143  -0.5396825   0.0000000), wk =   0.0634921
        k(   22) = (   0.2857143  -0.3915344   0.0000000), wk =   0.0634921
        k(   23) = (   0.2857143  -0.2433862   0.0000000), wk =   0.0634921
        k(   24) = (   0.4285714  -0.1428571   0.0000000), wk =   0.0634921
        k(   25) = (   0.4285714   0.0052910   0.0000000), wk =   0.0634921
        k(   26) = (   0.4285714   0.1534392   0.0000000), wk =   0.0634921
        k(   27) = (   0.4285714   0.3015873   0.0000000), wk =   0.0634921
        k(   28) = (   0.4285714   0.4497354   0.0000000), wk =   0.0634921
        k(   29) = (   0.4285714  -0.7354497   0.0000000), wk =   0.0634921
        k(   30) = (   0.4285714  -0.5873016   0.0000000), wk =   0.0634921
        k(   31) = (   0.4285714  -0.4391534   0.0000000), wk =   0.0634921
        k(   32) = (   0.4285714  -0.2910053   0.0000000), wk =   0.0634921

                       cryst. coord.
        k(    1) = (   0.0000000   0.0000000   0.0000000), wk =   0.0317460
        k(    2) = (   0.0000000   0.1111111   0.0000000), wk =   0.0634921
        k(    3) = (   0.0000000   0.2222222   0.0000000), wk =   0.0634921
        k(    4) = (   0.0000000   0.3333333   0.0000000), wk =   0.0634921
        k(    5) = (   0.0000000   0.4444444   0.0000000), wk =   0.0634921
        k(    6) = (   0.1428571   0.0000000   0.0000000), wk =   0.0634921
        k(    7) = (   0.1428571   0.1111111   0.0000000), wk =   0.0634921
        k(    8) = (   0.1428571   0.2222222   0.0000000), wk =   0.0634921
        k(    9) = (   0.1428571   0.3333333   0.0000000), wk =   0.0634921
        k(   10) = (   0.1428571   0.4444444   0.0000000), wk =   0.0634921
        k(   11) = (   0.1428571  -0.4444444   0.0000000), wk =   0.0634921
        k(   12) = (   0.1428571  -0.3333333   0.0000000), wk =   0.0634921
        k(   13) = (   0.1428571  -0.2222222   0.0000000), wk =   0.0634921
        k(   14) = (   0.1428571  -0.1111111   0.0000000), wk =   0.0634921
        k(   15) = (   0.2857143   0.0000000   0.0000000), wk =   0.0634921
        k(   16) = (   0.2857143   0.1111111   0.0000000), wk =   0.0634921
        k(   17) = (   0.2857143   0.2222222   0.0000000), wk =   0.0634921
        k(   18) = (   0.2857143   0.3333333   0.0000000), wk =   0.0634921
        k(   19) = (   0.2857143   0.4444444   0.0000000), wk =   0.0634921
        k(   20) = (   0.2857143  -0.4444444   0.0000000), wk =   0.0634921
        k(   21) = (   0.2857143  -0.3333333   0.0000000), wk =   0.0634921
        k(   22) = (   0.2857143  -0.2222222   0.0000000), wk =   0.0634921
        k(   23) = (   0.2857143  -0.1111111   0.0000000), wk =   0.0634921
        k(   24) = (   0.4285714   0.0000000   0.0000000), wk =   0.0634921
        k(   25) = (   0.4285714   0.1111111   0.0000000), wk =   0.0634921
        k(   26) = (   0.4285714   0.2222222   0.0000000), wk =   0.0634921
        k(   27) = (   0.4285714   0.3333333   0.0000000), wk =   0.0634921
        k(   28) = (   0.4285714   0.4444444   0.0000000), wk =   0.0634921
        k(   29) = (   0.4285714  -0.4444444   0.0000000), wk =   0.0634921
        k(   30) = (   0.4285714  -0.3333333   0.0000000), wk =   0.0634921
        k(   31) = (   0.4285714  -0.2222222   0.0000000), wk =   0.0634921
        k(   32) = (   0.4285714  -0.1111111   0.0000000), wk =   0.0634921

     Dense  grid:  9095383 G-vectors     FFT dimensions: ( 180, 135, 864)

     Smooth grid:  2301201 G-vectors     FFT dimensions: ( 108,  90, 540)

     Dynamical RAM for                 wfc:       1.85 MB

     Dynamical RAM for     wfc (w. buffer):      31.45 MB

     Dynamical RAM for           str. fact:       0.72 MB

     Dynamical RAM for           local pot:       0.00 MB

     Dynamical RAM for          nlocal pot:       6.58 MB

     Dynamical RAM for                qrad:       0.65 MB

     Dynamical RAM for          rho,v,vnew:       4.95 MB

     Dynamical RAM for               rhoin:       1.65 MB

     Dynamical RAM for            rho*nmix:      11.56 MB

     Dynamical RAM for           G-vectors:       2.80 MB

     Dynamical RAM for          h,s,v(r/c):       4.81 MB

     Dynamical RAM for          <psi|beta>:       0.36 MB

     Dynamical RAM for                 psi:       7.40 MB

     Dynamical RAM for                hpsi:       7.40 MB

     Dynamical RAM for                spsi:       7.40 MB

     Dynamical RAM for      wfcinit/wfcrot:       3.85 MB

     Dynamical RAM for           addusdens:      28.91 MB

     Dynamical RAM for          addusforce:      54.24 MB

     Estimated static dynamical RAM per process >      54.88 MB

     Estimated max dynamical RAM per process >     138.78 MB

     Estimated total dynamical RAM >      43.09 GB

     Initial potential from superposition of free atoms

     starting charge     107.8341, renormalised to     108.0000

     negative rho (up, down):  4.007E-03 0.000E+00
     Starting wfcs are random
     Checking if some PAW data can be deallocated... 

     total cpu time spent up to now is       30.3 secs

     Self-consistent Calculation

     iteration #  1     ecut=    80.00 Ry     beta= 0.20
     Davidson diagonalization with overlap

---- Real-time Memory Report at c_bands before calling an iterative solver
           703 MiB given to the printing process from OS
             0 MiB allocation reported by mallinfo(arena+hblkhd)
        471621 MiB available memory on the node where the printing process lives
------------------
     c_bands:  1 eigenvalues not converged
     c_bands:  1 eigenvalues not converged
     ethr =  1.00E-12,  avg # of iterations =110.6

     negative rho (up, down):  2.957E-03 0.000E+00

     total cpu time spent up to now is      266.9 secs

     total energy              =    -541.49437077 Ry
     estimated scf accuracy    <       0.17149072 Ry

     total charge of GC-SCF    =      -0.03454129 e
     the Fermi energy          =      -4.47012931 eV
                        (error :       3.06612931 eV)
     electrostatic embedding   =       0.00000000 Ry
     cavitation energy         =       0.03005865 Ry
     electrolyte free energy   =       0.01024461 Ry
     correction to one-el term =      -0.00000000 Ry

     iteration #  2     ecut=    80.00 Ry     beta= 0.20
     Davidson diagonalization with overlap

---- Real-time Memory Report at c_bands before calling an iterative solver
           703 MiB given to the printing process from OS
             0 MiB allocation reported by mallinfo(arena+hblkhd)
        468744 MiB available memory on the node where the printing process lives
------------------
     ethr =  1.00E-05,  avg # of iterations = 12.2

     negative rho (up, down):  2.280E-03 0.000E+00

     add environment contribution to local potential

     total cpu time spent up to now is      304.0 secs

     total energy              =    -541.37483744 Ry
     estimated scf accuracy    <       0.04708691 Ry

     total charge of GC-SCF    =      -0.07018995 e
     the Fermi energy          =      -3.26999275 eV
                        (error :       1.86599275 eV)
     electrostatic embedding   =      -0.00024619 Ry
     cavitation energy         =       0.03005865 Ry
     electrolyte free energy   =       0.01024461 Ry
     correction to one-el term =      -0.00000000 Ry

     iteration #  3     ecut=    80.00 Ry     beta= 0.20
     Davidson diagonalization with overlap

---- Real-time Memory Report at c_bands before calling an iterative solver
           703 MiB given to the printing process from OS
             0 MiB allocation reported by mallinfo(arena+hblkhd)
        468646 MiB available memory on the node where the printing process lives
------------------
     ethr =  1.00E-05,  avg # of iterations = 28.4

     negative rho (up, down):  1.926E-03 0.000E+00

     add environment contribution to local potential

     total cpu time spent up to now is      363.1 secs

     total energy              =    -541.29337232 Ry
     estimated scf accuracy    <       0.03399520 Ry

     total charge of GC-SCF    =      -0.24846292 e
     the Fermi energy          =      -2.87800219 eV
                        (error :       1.47400219 eV)
     electrostatic embedding   =      -0.03502285 Ry
     cavitation energy         =       0.03005865 Ry
     electrolyte free energy   =      -0.00314283 Ry
     correction to one-el term =       2.02333263 Ry

     iteration #  4     ecut=    80.00 Ry     beta= 0.20
     Davidson diagonalization with overlap

---- Real-time Memory Report at c_bands before calling an iterative solver
           703 MiB given to the printing process from OS
             0 MiB allocation reported by mallinfo(arena+hblkhd)
        468570 MiB available memory on the node where the printing process lives
------------------
     ethr =  1.00E-05,  avg # of iterations = 11.5

     negative rho (up, down):  1.587E-03 0.000E+00

     add environment contribution to local potential

     total cpu time spent up to now is      400.9 secs

     total energy              =    -541.22595915 Ry
     estimated scf accuracy    <       0.01634175 Ry

     total charge of GC-SCF    =      -0.48562570 e
     the Fermi energy          =      -3.10548078 eV
                        (error :       1.70148078 eV)
     electrostatic embedding   =      -0.04965578 Ry
     cavitation energy         =       0.03005865 Ry
     electrolyte free energy   =      -0.00391220 Ry
     correction to one-el term =       9.19428841 Ry

     iteration #  5     ecut=    80.00 Ry     beta= 0.20
     Davidson diagonalization with overlap

---- Real-time Memory Report at c_bands before calling an iterative solver
           703 MiB given to the printing process from OS
             0 MiB allocation reported by mallinfo(arena+hblkhd)
        468512 MiB available memory on the node where the printing process lives
------------------
     ethr =  1.00E-05,  avg # of iterations = 22.0

     negative rho (up, down):  1.341E-03 0.000E+00

     add environment contribution to local potential

     total cpu time spent up to now is      455.7 secs

     total energy              =    -541.14333296 Ry
     estimated scf accuracy    <       0.00430634 Ry

     total charge of GC-SCF    =      -0.98386210 e
     the Fermi energy          =      -2.57073933 eV
                        (error :       1.16673933 eV)
     electrostatic embedding   =      -0.08547395 Ry
     cavitation energy         =       0.03005865 Ry
     electrolyte free energy   =      -0.00116502 Ry
     correction to one-el term =      18.65210410 Ry

     iteration #  6     ecut=    80.00 Ry     beta= 0.20
     Davidson diagonalization with overlap

---- Real-time Memory Report at c_bands before calling an iterative solver
           703 MiB given to the printing process from OS
             0 MiB allocation reported by mallinfo(arena+hblkhd)
        468429 MiB available memory on the node where the printing process lives
------------------
     ethr =  3.95E-06,  avg # of iterations = 27.8

     negative rho (up, down):  1.171E-03 0.000E+00

     add environment contribution to local potential

     total cpu time spent up to now is      511.0 secs

     total energy              =    -541.32429106 Ry
     estimated scf accuracy    <       0.03028710 Ry

     total charge of GC-SCF    =      -1.17006765 e
     the Fermi energy          =      -1.94905223 eV
                        (error :       0.54505223 eV)
     electrostatic embedding   =      -0.23409420 Ry
     cavitation energy         =       0.03005865 Ry
     electrolyte free energy   =      -0.00292764 Ry
     correction to one-el term =      38.96998686 Ry

     iteration #  7     ecut=    80.00 Ry     beta= 0.20
     Davidson diagonalization with overlap

---- Real-time Memory Report at c_bands before calling an iterative solver
           703 MiB given to the printing process from OS
             0 MiB allocation reported by mallinfo(arena+hblkhd)
        468349 MiB available memory on the node where the printing process lives
------------------
     ethr =  3.95E-06,  avg # of iterations = 11.2

     negative rho (up, down):  1.053E-03 0.000E+00

     add environment contribution to local potential

     total cpu time spent up to now is      546.6 secs

     total energy              =    -541.32592253 Ry
     estimated scf accuracy    <       0.00942366 Ry

     total charge of GC-SCF    =      -1.59084712 e
     the Fermi energy          =      -2.16495821 eV
                        (error :       0.76095821 eV)
     electrostatic embedding   =      -0.30879144 Ry
     cavitation energy         =       0.03005865 Ry
     electrolyte free energy   =      -0.00225935 Ry
     correction to one-el term =      45.02217355 Ry

     iteration #  8     ecut=    80.00 Ry     beta= 0.20
     Davidson diagonalization with overlap

---- Real-time Memory Report at c_bands before calling an iterative solver
           703 MiB given to the printing process from OS
             0 MiB allocation reported by mallinfo(arena+hblkhd)
        468308 MiB available memory on the node where the printing process lives
------------------
     ethr =  3.95E-06,  avg # of iterations = 11.3

     negative rho (up, down):  9.459E-04 0.000E+00

     add environment contribution to local potential

     total cpu time spent up to now is      582.2 secs

     total energy              =    -541.35517931 Ry
     estimated scf accuracy    <       0.01369258 Ry

     total charge of GC-SCF    =      -1.94376522 e
     the Fermi energy          =      -2.00923573 eV
                        (error :       0.60523573 eV)
     electrostatic embedding   =      -0.52517496 Ry
     cavitation energy         =       0.03005865 Ry
     electrolyte free energy   =      -0.00436120 Ry
     correction to one-el term =      60.17579187 Ry

     iteration #  9     ecut=    80.00 Ry     beta= 0.20
     Davidson diagonalization with overlap

---- Real-time Memory Report at c_bands before calling an iterative solver
           703 MiB given to the printing process from OS
             0 MiB allocation reported by mallinfo(arena+hblkhd)
        468194 MiB available memory on the node where the printing process lives
------------------
     ethr =  3.95E-06,  avg # of iterations = 10.7

     negative rho (up, down):  8.509E-04 0.000E+00

     add environment contribution to local potential

     total cpu time spent up to now is      616.1 secs

     total energy              =    -541.44454750 Ry
     estimated scf accuracy    <       0.00471895 Ry

     total charge of GC-SCF    =      -2.03488817 e
     the Fermi energy          =      -2.11848120 eV
                        (error :       0.71448120 eV)
     electrostatic embedding   =      -0.74044065 Ry
     cavitation energy         =       0.03005865 Ry
     electrolyte free energy   =      -0.00528156 Ry
     correction to one-el term =      71.62136320 Ry

     iteration # 10     ecut=    80.00 Ry     beta= 0.20
     Davidson diagonalization with overlap

---- Real-time Memory Report at c_bands before calling an iterative solver
           703 MiB given to the printing process from OS
             0 MiB allocation reported by mallinfo(arena+hblkhd)
        468118 MiB available memory on the node where the printing process lives
------------------
     ethr =  3.95E-06,  avg # of iterations =  2.6

     negative rho (up, down):  7.644E-04 0.000E+00

     add environment contribution to local potential

     total cpu time spent up to now is      638.2 secs

     total energy              =    -541.41878066 Ry
     estimated scf accuracy    <       0.00527005 Ry

     total charge of GC-SCF    =      -2.27190950 e
     the Fermi energy          =      -2.10394941 eV
                        (error :       0.69994941 eV)
     electrostatic embedding   =      -0.79984133 Ry
     cavitation energy         =       0.03005865 Ry
     electrolyte free energy   =      -0.00578266 Ry
     correction to one-el term =      74.49444658 Ry

     iteration # 11     ecut=    80.00 Ry     beta= 0.20
     Davidson diagonalization with overlap

---- Real-time Memory Report at c_bands before calling an iterative solver
           703 MiB given to the printing process from OS
             0 MiB allocation reported by mallinfo(arena+hblkhd)
        468111 MiB available memory on the node where the printing process lives
------------------
     ethr =  3.95E-06,  avg # of iterations = 10.2

     negative rho (up, down):  6.936E-04 0.000E+00

     add environment contribution to local potential

     total cpu time spent up to now is      671.3 secs

     total energy              =    -541.37509479 Ry
     estimated scf accuracy    <       0.00501103 Ry

     total charge of GC-SCF    =      -2.86884366 e
     the Fermi energy          =      -2.10855326 eV
                        (error :       0.70455326 eV)
     electrostatic embedding   =      -0.96327614 Ry
     cavitation energy         =       0.03005865 Ry
     electrolyte free energy   =      -0.00701996 Ry
     correction to one-el term =      81.74518877 Ry

     iteration # 12     ecut=    80.00 Ry     beta= 0.20
     Davidson diagonalization with overlap

---- Real-time Memory Report at c_bands before calling an iterative solver
           703 MiB given to the printing process from OS
             0 MiB allocation reported by mallinfo(arena+hblkhd)
        468133 MiB available memory on the node where the printing process lives
------------------
     ethr =  3.95E-06,  avg # of iterations = 12.5

     negative rho (up, down):  7.104E-04 0.000E+00

     add environment contribution to local potential

     total cpu time spent up to now is      711.4 secs

     total energy              =    -541.40956396 Ry
     estimated scf accuracy    <       0.00213427 Ry

     total charge of GC-SCF    =      -4.44200114 e
     the Fermi energy          =      -2.19360592 eV
                        (error :       0.78960592 eV)
     electrostatic embedding   =      -1.44774987 Ry
     cavitation energy         =       0.03005865 Ry
     electrolyte free energy   =      -0.01111745 Ry
     correction to one-el term =      99.80490353 Ry

     iteration # 13     ecut=    80.00 Ry     beta= 0.20
     Davidson diagonalization with overlap

---- Real-time Memory Report at c_bands before calling an iterative solver
           703 MiB given to the printing process from OS
             0 MiB allocation reported by mallinfo(arena+hblkhd)
        468112 MiB available memory on the node where the printing process lives
------------------
     ethr =  1.90E-06,  avg # of iterations = 14.0

     negative rho (up, down):  6.493E-04 0.000E+00

     add environment contribution to local potential

     total cpu time spent up to now is      756.1 secs

     total energy              =    -541.56891601 Ry
     estimated scf accuracy    <       0.00528472 Ry

     total charge of GC-SCF    =      -4.62737531 e
     the Fermi energy          =      -2.08017373 eV
                        (error :       0.67617373 eV)
     electrostatic embedding   =      -3.26864354 Ry
     cavitation energy         =       0.03005865 Ry
     electrolyte free energy   =      -0.03727103 Ry
     correction to one-el term =     151.91396544 Ry

     iteration # 14     ecut=    80.00 Ry     beta= 0.20
     Davidson diagonalization with overlap

---- Real-time Memory Report at c_bands before calling an iterative solver
           703 MiB given to the printing process from OS
             0 MiB allocation reported by mallinfo(arena+hblkhd)
        468097 MiB available memory on the node where the printing process lives
------------------
     ethr =  1.90E-06,  avg # of iterations = 14.2

     negative rho (up, down):  6.481E-04 0.000E+00

     add environment contribution to local potential

     total cpu time spent up to now is      803.4 secs

     total energy              =    -541.58069169 Ry
     estimated scf accuracy    <       0.00117112 Ry

     total charge of GC-SCF    =      -4.87226318 e
     the Fermi energy          =      -1.88412985 eV
                        (error :       0.48012985 eV)
     electrostatic embedding   =      -3.48726958 Ry
     cavitation energy         =       0.03005865 Ry
     electrolyte free energy   =      -0.04241897 Ry
     correction to one-el term =     157.10139089 Ry

     iteration # 15     ecut=    80.00 Ry     beta= 0.20
     Davidson diagonalization with overlap

---- Real-time Memory Report at c_bands before calling an iterative solver
           703 MiB given to the printing process from OS
             0 MiB allocation reported by mallinfo(arena+hblkhd)
        468106 MiB available memory on the node where the printing process lives
------------------
     ethr =  1.04E-06,  avg # of iterations = 12.2

     negative rho (up, down):  6.880E-04 0.000E+00

     add environment contribution to local potential

     total cpu time spent up to now is      843.3 secs

     total energy              =    -541.82606363 Ry
     estimated scf accuracy    <       0.00166805 Ry

     total charge of GC-SCF    =      -3.99361563 e
     the Fermi energy          =      -1.79519284 eV
                        (error :       0.39119284 eV)
     electrostatic embedding   =      -3.83148419 Ry
     cavitation energy         =       0.03005865 Ry
     electrolyte free energy   =      -0.04950565 Ry
     correction to one-el term =     164.86975625 Ry

     iteration # 16     ecut=    80.00 Ry     beta= 0.20
     Davidson diagonalization with overlap

---- Real-time Memory Report at c_bands before calling an iterative solver
           703 MiB given to the printing process from OS
             0 MiB allocation reported by mallinfo(arena+hblkhd)
        468111 MiB available memory on the node where the printing process lives
------------------
     ethr =  1.04E-06,  avg # of iterations = 16.6

     negative rho (up, down):  6.715E-04 0.000E+00

     add environment contribution to local potential

     total cpu time spent up to now is      889.5 secs

     total energy              =    -541.58161263 Ry
     estimated scf accuracy    <       0.00085677 Ry

     total charge of GC-SCF    =      -4.02545130 e
     the Fermi energy          =      -2.05680838 eV
                        (error :       0.65280838 eV)
     electrostatic embedding   =      -2.62672488 Ry
     cavitation energy         =       0.03005865 Ry
     electrolyte free energy   =      -0.02722050 Ry
     correction to one-el term =     135.15479719 Ry

     iteration # 17     ecut=    80.00 Ry     beta= 0.20
     Davidson diagonalization with overlap

---- Real-time Memory Report at c_bands before calling an iterative solver
           703 MiB given to the printing process from OS
             0 MiB allocation reported by mallinfo(arena+hblkhd)
        468052 MiB available memory on the node where the printing process lives
------------------
     ethr =  7.65E-07,  avg # of iterations =  8.4

     negative rho (up, down):  9.381E-04 0.000E+00

     add environment contribution to local potential

     total cpu time spent up to now is      921.6 secs

     total energy              =    -541.51291266 Ry
     estimated scf accuracy    <       0.00098920 Ry

     total charge of GC-SCF    =      -4.95529459 e
     the Fermi energy          =      -2.03319771 eV
                        (error :       0.62919771 eV)
     electrostatic embedding   =      -2.68347531 Ry
     cavitation energy         =       0.03005865 Ry
     electrolyte free energy   =      -0.02813841 Ry
     correction to one-el term =     137.08228909 Ry

     iteration # 18     ecut=    80.00 Ry     beta= 0.20
     Davidson diagonalization with overlap

---- Real-time Memory Report at c_bands before calling an iterative solver
           703 MiB given to the printing process from OS
             0 MiB allocation reported by mallinfo(arena+hblkhd)
        468082 MiB available memory on the node where the printing process lives
------------------
     ethr =  7.65E-07,  avg # of iterations = 20.5

     negative rho (up, down):  8.030E-04 0.000E+00

     add environment contribution to local potential

     total cpu time spent up to now is      976.5 secs

     total energy              =    -541.59291437 Ry
     estimated scf accuracy    <       0.00056818 Ry

     total charge of GC-SCF    =      -5.21199679 e
     the Fermi energy          =      -1.94008600 eV
                        (error :       0.53608600 eV)
     electrostatic embedding   =      -3.83482411 Ry
     cavitation energy         =       0.03005865 Ry
     electrolyte free energy   =      -0.05012243 Ry
     correction to one-el term =     162.31274422 Ry

     iteration # 19     ecut=    80.00 Ry     beta= 0.20
     Davidson diagonalization with overlap

---- Real-time Memory Report at c_bands before calling an iterative solver
           703 MiB given to the printing process from OS
             0 MiB allocation reported by mallinfo(arena+hblkhd)
        468039 MiB available memory on the node where the printing process lives
------------------
     ethr =  5.02E-07,  avg # of iterations = 11.5

     negative rho (up, down):  5.767E-04 0.000E+00

     add environment contribution to local potential

     total cpu time spent up to now is     1018.6 secs

     total energy              =    -541.60638069 Ry
     estimated scf accuracy    <       0.00053042 Ry

     total charge of GC-SCF    =      -5.44432814 e
     the Fermi energy          =      -1.86961609 eV
                        (error :       0.46561609 eV)
     electrostatic embedding   =      -4.20184968 Ry
     cavitation energy         =       0.03005865 Ry
     electrolyte free energy   =      -0.05832865 Ry
     correction to one-el term =     170.01769862 Ry

     iteration # 20     ecut=    80.00 Ry     beta= 0.20
     Davidson diagonalization with overlap

---- Real-time Memory Report at c_bands before calling an iterative solver
           703 MiB given to the printing process from OS
             0 MiB allocation reported by mallinfo(arena+hblkhd)
        468053 MiB available memory on the node where the printing process lives
------------------
     ethr =  4.68E-07,  avg # of iterations =  9.5

     negative rho (up, down):  4.063E-04 0.000E+00

     add environment contribution to local potential

     total cpu time spent up to now is     1058.9 secs

     total energy              =    -541.78484521 Ry
     estimated scf accuracy    <       0.00046413 Ry

     total charge of GC-SCF    =      -7.10217679 e
     the Fermi energy          =      -1.81805443 eV
                        (error :       0.41405443 eV)
     electrostatic embedding   =      -4.55495576 Ry
     cavitation energy         =       0.03005865 Ry
     electrolyte free energy   =      -0.06648052 Ry
     correction to one-el term =     177.18342682 Ry

     iteration # 21     ecut=    80.00 Ry     beta= 0.20
     Davidson diagonalization with overlap

---- Real-time Memory Report at c_bands before calling an iterative solver
           703 MiB given to the printing process from OS
             0 MiB allocation reported by mallinfo(arena+hblkhd)
        468054 MiB available memory on the node where the printing process lives
------------------
     ethr =  4.03E-07,  avg # of iterations = 25.5

     negative rho (up, down):  4.064E-04 0.000E+00

     add environment contribution to local potential

     total cpu time spent up to now is     1124.5 secs

     total energy              =    -541.66611148 Ry
     estimated scf accuracy    <       0.00023203 Ry

     total charge of GC-SCF    =      -6.95779621 e
     the Fermi energy          =      -1.50860067 eV
                        (error :       0.10460067 eV)
     electrostatic embedding   =      -7.38450520 Ry
     cavitation energy         =       0.03005865 Ry
     electrolyte free energy   =      -0.14865557 Ry
     correction to one-el term =     224.89818887 Ry

     iteration # 22     ecut=    80.00 Ry     beta= 0.20
     Davidson diagonalization with overlap

---- Real-time Memory Report at c_bands before calling an iterative solver
           703 MiB given to the printing process from OS
             0 MiB allocation reported by mallinfo(arena+hblkhd)
        468037 MiB available memory on the node where the printing process lives
------------------
     ethr =  2.02E-07,  avg # of iterations = 13.8

     negative rho (up, down):  4.092E-04 0.000E+00

     add environment contribution to local potential

     total cpu time spent up to now is     1172.8 secs

     total energy              =    -541.66249818 Ry
     estimated scf accuracy    <       0.00014732 Ry

     total charge of GC-SCF    =      -6.87762586 e
     the Fermi energy          =      -1.48302123 eV
                        (error :       0.07902123 eV)
     electrostatic embedding   =      -7.13214767 Ry
     cavitation energy         =       0.03005865 Ry
     electrolyte free energy   =      -0.13966640 Ry
     correction to one-el term =     221.60334472 Ry

     iteration # 23     ecut=    80.00 Ry     beta= 0.20
     Davidson diagonalization with overlap

---- Real-time Memory Report at c_bands before calling an iterative solver
           703 MiB given to the printing process from OS
             0 MiB allocation reported by mallinfo(arena+hblkhd)
        467999 MiB available memory on the node where the printing process lives
------------------
     ethr =  1.28E-07,  avg # of iterations = 12.4

     negative rho (up, down):  3.757E-04 0.000E+00

     add environment contribution to local potential

     total cpu time spent up to now is     1218.5 secs

     total energy              =    -541.66355699 Ry
     estimated scf accuracy    <       0.00007210 Ry

     total charge of GC-SCF    =      -7.20455063 e
     the Fermi energy          =      -1.52561748 eV
                        (error :       0.12161748 eV)
     electrostatic embedding   =      -6.96823751 Ry
     cavitation energy         =       0.03005865 Ry
     electrolyte free energy   =      -0.13453034 Ry
     correction to one-el term =     218.69331448 Ry

     iteration # 24     ecut=    80.00 Ry     beta= 0.20
     Davidson diagonalization with overlap

---- Real-time Memory Report at c_bands before calling an iterative solver
           703 MiB given to the printing process from OS
             0 MiB allocation reported by mallinfo(arena+hblkhd)
        468006 MiB available memory on the node where the printing process lives
------------------
     ethr =  6.26E-08,  avg # of iterations = 31.2

     negative rho (up, down):  3.765E-04 0.000E+00

     add environment contribution to local potential

     total cpu time spent up to now is     1291.8 secs

     total energy              =    -541.66273972 Ry
     estimated scf accuracy    <       0.00012851 Ry

     total charge of GC-SCF    =      -7.09704840 e
     the Fermi energy          =      -1.42871906 eV
                        (error :       0.02471906 eV)
     electrostatic embedding   =      -7.58428550 Ry
     cavitation energy         =       0.03005865 Ry
     electrolyte free energy   =      -0.15590714 Ry
     correction to one-el term =     228.33790769 Ry

     iteration # 25     ecut=    80.00 Ry     beta= 0.20
     Davidson diagonalization with overlap

---- Real-time Memory Report at c_bands before calling an iterative solver
           703 MiB given to the printing process from OS
             0 MiB allocation reported by mallinfo(arena+hblkhd)
        468040 MiB available memory on the node where the printing process lives
------------------
     ethr =  6.26E-08,  avg # of iterations = 12.4

     negative rho (up, down):  3.703E-04 0.000E+00

     add environment contribution to local potential

     total cpu time spent up to now is     1338.2 secs

     total energy              =    -541.66380805 Ry
     estimated scf accuracy    <       0.00006395 Ry

     total charge of GC-SCF    =      -7.02754107 e
     the Fermi energy          =      -1.47694480 eV
                        (error :       0.07294480 eV)
     electrostatic embedding   =      -7.35398307 Ry
     cavitation energy         =       0.03005865 Ry
     electrolyte free energy   =      -0.14837844 Ry
     correction to one-el term =     224.34503865 Ry

     iteration # 26     ecut=    80.00 Ry     beta= 0.20
     Davidson diagonalization with overlap

---- Real-time Memory Report at c_bands before calling an iterative solver
           703 MiB given to the printing process from OS
             0 MiB allocation reported by mallinfo(arena+hblkhd)
        468018 MiB available memory on the node where the printing process lives
------------------
     ethr =  5.56E-08,  avg # of iterations = 12.0

     negative rho (up, down):  3.353E-04 0.000E+00

     add environment contribution to local potential

     total cpu time spent up to now is     1384.0 secs

     total energy              =    -541.66445481 Ry
     estimated scf accuracy    <       0.00004696 Ry

     total charge of GC-SCF    =      -7.34072697 e
     the Fermi energy          =      -1.50289335 eV
                        (error :       0.09889335 eV)
     electrostatic embedding   =      -7.20330120 Ry
     cavitation energy         =       0.03005865 Ry
     electrolyte free energy   =      -0.14368983 Ry
     correction to one-el term =     221.70264527 Ry

     iteration # 27     ecut=    80.00 Ry     beta= 0.20
     Davidson diagonalization with overlap

---- Real-time Memory Report at c_bands before calling an iterative solver
           703 MiB given to the printing process from OS
             0 MiB allocation reported by mallinfo(arena+hblkhd)
        467989 MiB available memory on the node where the printing process lives
------------------
     ethr =  4.07E-08,  avg # of iterations = 31.6

     negative rho (up, down):  3.332E-04 0.000E+00

     add environment contribution to local potential

     total cpu time spent up to now is     1460.1 secs

     total energy              =    -541.66249470 Ry
     estimated scf accuracy    <       0.00001714 Ry

     total charge of GC-SCF    =      -7.37637936 e
     the Fermi energy          =      -1.43261253 eV
                        (error :       0.02861253 eV)
     electrostatic embedding   =      -7.73852002 Ry
     cavitation energy         =       0.03005865 Ry
     electrolyte free energy   =      -0.16523226 Ry
     correction to one-el term =     229.02302788 Ry

     iteration # 28     ecut=    80.00 Ry     beta= 0.20
     Davidson diagonalization with overlap

---- Real-time Memory Report at c_bands before calling an iterative solver
           703 MiB given to the printing process from OS
             0 MiB allocation reported by mallinfo(arena+hblkhd)
        468000 MiB available memory on the node where the printing process lives
------------------
     ethr =  1.49E-08,  avg # of iterations = 12.8

     negative rho (up, down):  3.372E-04 0.000E+00

     add environment contribution to local potential

     total cpu time spent up to now is     1505.6 secs

     total energy              =    -541.66303160 Ry
     estimated scf accuracy    <       0.00001456 Ry

     total charge of GC-SCF    =      -7.34001152 e
     the Fermi energy          =      -1.42319246 eV
                        (error :       0.01919246 eV)
     electrostatic embedding   =      -7.80009909 Ry
     cavitation energy         =       0.03005865 Ry
     electrolyte free energy   =      -0.16792695 Ry
     correction to one-el term =     229.89834524 Ry

     iteration # 29     ecut=    80.00 Ry     beta= 0.20
     Davidson diagonalization with overlap

---- Real-time Memory Report at c_bands before calling an iterative solver
           703 MiB given to the printing process from OS
             0 MiB allocation reported by mallinfo(arena+hblkhd)
        467993 MiB available memory on the node where the printing process lives
------------------
     ethr =  1.26E-08,  avg # of iterations = 17.7

     negative rho (up, down):  3.330E-04 0.000E+00

     add environment contribution to local potential

     total cpu time spent up to now is     1562.3 secs

     total energy              =    -541.66290231 Ry
     estimated scf accuracy    <       0.00000573 Ry

     total charge of GC-SCF    =      -7.44470549 e
     the Fermi energy          =      -1.44151847 eV
                        (error :       0.03751847 eV)
     electrostatic embedding   =      -7.70679997 Ry
     cavitation energy         =       0.03005865 Ry
     electrolyte free energy   =      -0.16504466 Ry
     correction to one-el term =     228.20367970 Ry

     iteration # 30     ecut=    80.00 Ry     beta= 0.20
     Davidson diagonalization with overlap

---- Real-time Memory Report at c_bands before calling an iterative solver
           703 MiB given to the printing process from OS
             0 MiB allocation reported by mallinfo(arena+hblkhd)
        467964 MiB available memory on the node where the printing process lives
------------------
     ethr =  4.96E-09,  avg # of iterations = 32.8

     negative rho (up, down):  3.326E-04 0.000E+00

     add environment contribution to local potential

     total cpu time spent up to now is     1641.5 secs

     total energy              =    -541.66282007 Ry
     estimated scf accuracy    <       0.00000368 Ry

     total charge of GC-SCF    =      -7.41878016 e
     the Fermi energy          =      -1.41212770 eV
                        (error :       0.00812770 eV)
     electrostatic embedding   =      -7.90100792 Ry
     cavitation energy         =       0.03005865 Ry
     electrolyte free energy   =      -0.17316987 Ry
     correction to one-el term =     231.04344921 Ry

     iteration # 31     ecut=    80.00 Ry     beta= 0.20
     Davidson diagonalization with overlap

---- Real-time Memory Report at c_bands before calling an iterative solver
           703 MiB given to the printing process from OS
             0 MiB allocation reported by mallinfo(arena+hblkhd)
        467970 MiB available memory on the node where the printing process lives
------------------
     ethr =  3.19E-09,  avg # of iterations = 13.4

     negative rho (up, down):  3.277E-04 0.000E+00

     add environment contribution to local potential

     total cpu time spent up to now is     1692.0 secs

     total energy              =    -541.66267533 Ry
     estimated scf accuracy    <       0.00000169 Ry

     total charge of GC-SCF    =      -7.44493695 e
     the Fermi energy          =      -1.42352103 eV
                        (error :       0.01952103 eV)
     electrostatic embedding   =      -7.84424102 Ry
     cavitation energy         =       0.03005865 Ry
     electrolyte free energy   =      -0.17106141 Ry
     correction to one-el term =     230.09286013 Ry

     iteration # 32     ecut=    80.00 Ry     beta= 0.20
     Davidson diagonalization with overlap

---- Real-time Memory Report at c_bands before calling an iterative solver
           703 MiB given to the printing process from OS
             0 MiB allocation reported by mallinfo(arena+hblkhd)
        467960 MiB available memory on the node where the printing process lives
------------------
     ethr =  1.46E-09,  avg # of iterations = 19.5

     negative rho (up, down):  3.265E-04 0.000E+00

     add environment contribution to local potential

     total cpu time spent up to now is     1748.8 secs

     total energy              =    -541.66268581 Ry
     estimated scf accuracy    <       0.00000092 Ry

     total charge of GC-SCF    =      -7.46020244 e
     the Fermi energy          =      -1.41707378 eV
                        (error :       0.01307378 eV)
     electrostatic embedding   =      -7.89098414 Ry
     cavitation energy         =       0.03005865 Ry
     electrolyte free energy   =      -0.17313455 Ry
     correction to one-el term =     230.74034293 Ry

     iteration # 33     ecut=    80.00 Ry     beta= 0.20
     Davidson diagonalization with overlap

---- Real-time Memory Report at c_bands before calling an iterative solver
           703 MiB given to the printing process from OS
             0 MiB allocation reported by mallinfo(arena+hblkhd)
        467920 MiB available memory on the node where the printing process lives
------------------
     ethr =  7.94E-10,  avg # of iterations = 12.9

     negative rho (up, down):  3.255E-04 0.000E+00

     add environment contribution to local potential

     total cpu time spent up to now is     1796.5 secs

     total energy              =    -541.66269594 Ry
     estimated scf accuracy    <       0.00000071 Ry

     total charge of GC-SCF    =      -7.48346340 e
     the Fermi energy          =      -1.41369851 eV
                        (error :       0.00969851 eV)
     electrostatic embedding   =      -7.91818168 Ry
     cavitation energy         =       0.03005865 Ry
     electrolyte free energy   =      -0.17436034 Ry
     correction to one-el term =     231.11186359 Ry

     iteration # 34     ecut=    80.00 Ry     beta= 0.20
     Davidson diagonalization with overlap

---- Real-time Memory Report at c_bands before calling an iterative solver
           703 MiB given to the printing process from OS
             0 MiB allocation reported by mallinfo(arena+hblkhd)
        467954 MiB available memory on the node where the printing process lives
------------------
     ethr =  6.12E-10,  avg # of iterations = 19.9

     negative rho (up, down):  3.252E-04 0.000E+00

     add environment contribution to local potential

     total cpu time spent up to now is     1855.2 secs

     total energy              =    -541.66266522 Ry
     estimated scf accuracy    <       0.00000037 Ry

     total charge of GC-SCF    =      -7.49548617 e
     the Fermi energy          =      -1.40839494 eV
                        (error :       0.00439494 eV)
     electrostatic embedding   =      -7.96033464 Ry
     cavitation energy         =       0.03005865 Ry
     electrolyte free energy   =      -0.17625811 Ry
     correction to one-el term =     231.69948050 Ry

     iteration # 35     ecut=    80.00 Ry     beta= 0.20
     Davidson diagonalization with overlap

---- Real-time Memory Report at c_bands before calling an iterative solver
           703 MiB given to the printing process from OS
             0 MiB allocation reported by mallinfo(arena+hblkhd)
        467931 MiB available memory on the node where the printing process lives
------------------
     ethr =  3.23E-10,  avg # of iterations = 16.0

     negative rho (up, down):  3.253E-04 0.000E+00

     add environment contribution to local potential

     total cpu time spent up to now is     1906.9 secs

     total energy              =    -541.66263977 Ry
     estimated scf accuracy    <       0.00000016 Ry

     total charge of GC-SCF    =      -7.49437690 e
     the Fermi energy          =      -1.40522399 eV
                        (error :       0.00122399 eV)
     electrostatic embedding   =      -7.98188130 Ry
     cavitation energy         =       0.03005865 Ry
     electrolyte free energy   =      -0.17725396 Ry
     correction to one-el term =     232.00730161 Ry

     iteration # 36     ecut=    80.00 Ry     beta= 0.20
     Davidson diagonalization with overlap

---- Real-time Memory Report at c_bands before calling an iterative solver
           703 MiB given to the printing process from OS
             0 MiB allocation reported by mallinfo(arena+hblkhd)
        467931 MiB available memory on the node where the printing process lives
------------------
     ethr =  1.43E-10,  avg # of iterations = 10.0

     negative rho (up, down):  3.253E-04 0.000E+00

     add environment contribution to local potential

     total cpu time spent up to now is     1948.3 secs

     total energy              =    -541.66264082 Ry
     estimated scf accuracy    <       0.00000010 Ry

     total charge of GC-SCF    =      -7.49199186 e
     the Fermi energy          =      -1.40542054 eV
                        (error :       0.00142054 eV)
     electrostatic embedding   =      -7.98003230 Ry
     cavitation energy         =       0.03005865 Ry
     electrolyte free energy   =      -0.17716337 Ry
     correction to one-el term =     231.99218353 Ry

     iteration # 37     ecut=    80.00 Ry     beta= 0.20
     Davidson diagonalization with overlap

---- Real-time Memory Report at c_bands before calling an iterative solver
           703 MiB given to the printing process from OS
             0 MiB allocation reported by mallinfo(arena+hblkhd)
        467924 MiB available memory on the node where the printing process lives
------------------
     ethr =  8.50E-11,  avg # of iterations = 10.7

     negative rho (up, down):  3.251E-04 0.000E+00

     add environment contribution to local potential

     total cpu time spent up to now is     1991.9 secs

     total energy              =    -541.66264250 Ry
     estimated scf accuracy    <       0.00000006 Ry

     total charge of GC-SCF    =      -7.49272750 e
     the Fermi energy          =      -1.40601476 eV
                        (error :       0.00201476 eV)
     electrostatic embedding   =      -7.97591449 Ry
     cavitation energy         =       0.03005865 Ry
     electrolyte free energy   =      -0.17696676 Ry
     correction to one-el term =     231.94055722 Ry

     iteration # 38     ecut=    80.00 Ry     beta= 0.20
     Davidson diagonalization with overlap

---- Real-time Memory Report at c_bands before calling an iterative solver
           703 MiB given to the printing process from OS
             0 MiB allocation reported by mallinfo(arena+hblkhd)
        467900 MiB available memory on the node where the printing process lives
------------------
     ethr =  5.02E-11,  avg # of iterations = 10.5

     negative rho (up, down):  3.249E-04 0.000E+00

     add environment contribution to local potential

     total cpu time spent up to now is     2035.2 secs

     total energy              =    -541.66264253 Ry
     estimated scf accuracy    <       0.00000003 Ry

     total charge of GC-SCF    =      -7.49480761 e
     the Fermi energy          =      -1.40604459 eV
                        (error :       0.00204459 eV)
     electrostatic embedding   =      -7.97715380 Ry
     cavitation energy         =       0.03005865 Ry
     electrolyte free energy   =      -0.17702679 Ry
     correction to one-el term =     231.95309638 Ry

     iteration # 39     ecut=    80.00 Ry     beta= 0.20
     Davidson diagonalization with overlap

---- Real-time Memory Report at c_bands before calling an iterative solver
           703 MiB given to the printing process from OS
             0 MiB allocation reported by mallinfo(arena+hblkhd)
        467898 MiB available memory on the node where the printing process lives
------------------
     ethr =  2.88E-11,  avg # of iterations = 11.2

     negative rho (up, down):  3.245E-04 0.000E+00

     add environment contribution to local potential

     total cpu time spent up to now is     2079.4 secs

     total energy              =    -541.66264011 Ry
     estimated scf accuracy    <       0.00000002 Ry

     total charge of GC-SCF    =      -7.49512322 e
     the Fermi energy          =      -1.40568052 eV
                        (error :       0.00168052 eV)
     electrostatic embedding   =      -7.98073454 Ry
     cavitation energy         =       0.03005865 Ry
     electrolyte free energy   =      -0.17719833 Ry
     correction to one-el term =     231.99801023 Ry

     iteration # 40     ecut=    80.00 Ry     beta= 0.20
     Davidson diagonalization with overlap

---- Real-time Memory Report at c_bands before calling an iterative solver
           703 MiB given to the printing process from OS
             0 MiB allocation reported by mallinfo(arena+hblkhd)
        467939 MiB available memory on the node where the printing process lives
------------------
     ethr =  1.87E-11,  avg # of iterations = 12.2

     negative rho (up, down):  3.242E-04 0.000E+00

     add environment contribution to local potential

     total cpu time spent up to now is     2128.2 secs

     total energy              =    -541.66263982 Ry
     estimated scf accuracy    <       0.00000001 Ry

     total charge of GC-SCF    =      -7.49918876 e
     the Fermi energy          =      -1.40553327 eV
                        (error :       0.00153327 eV)
     electrostatic embedding   =      -7.98138736 Ry
     cavitation energy         =       0.03005865 Ry
     electrolyte free energy   =      -0.17722469 Ry
     correction to one-el term =     232.00425341 Ry

     iteration # 41     ecut=    80.00 Ry     beta= 0.20
     Davidson diagonalization with overlap

---- Real-time Memory Report at c_bands before calling an iterative solver
           703 MiB given to the printing process from OS
             0 MiB allocation reported by mallinfo(arena+hblkhd)
        467947 MiB available memory on the node where the printing process lives
------------------
     ethr =  1.08E-11,  avg # of iterations = 21.2

     negative rho (up, down):  3.239E-04 0.000E+00

     total cpu time spent up to now is     2170.8 secs

     End of self-consistent calculation

          k = 0.0000 0.0000 0.0000 (287685 PWs)   bands (ev):

   -48.4610 -48.4610 -48.4609 -48.4609 -48.2078 -48.2078 -48.2070 -48.2070
   -48.1720 -48.1720 -48.1713 -48.1713 -48.0683 -48.0682 -48.0682 -48.0682
   -47.9958 -47.9958 -47.9958 -47.9957 -47.9649 -47.9602 -47.9602 -47.9558
   -47.9148 -47.9130 -47.9095 -47.9077 -47.8911 -47.8907 -47.8896 -47.8895
   -47.8799 -47.8793 -47.8772 -47.8765  -4.8292  -4.4053  -3.7920  -3.4953
    -3.4945  -3.1166  -3.0295  -3.0235  -2.6819  -2.6773  -2.4497  -2.4466
    -2.3313  -2.3304  -2.3067  -2.2093  -2.1840  -2.0036  -1.9571  -1.5854
    -1.5618  -1.5146  -1.4506  -1.4008  -1.3108  -1.1865  -0.9883  -0.8026
    -0.7810  -0.7454  -0.6475  -0.5073  -0.4995  -0.3797  -0.2930  -0.1864
    -0.1167  -0.0924  -0.0455  -0.0341   0.0533   0.1414   0.1529   0.3149
     0.3604

     occupation numbers 
     1.0000   1.0000   1.0000   1.0000   1.0000   1.0000   1.0000   1.0000
     1.0000   1.0000   1.0000   1.0000   1.0000   1.0000   1.0000   1.0000
     1.0000   1.0000   1.0000   1.0000   1.0000   1.0000   1.0000   1.0000
     1.0000   1.0000   1.0000   1.0000   1.0000   1.0000   1.0000   1.0000
     1.0000   1.0000   1.0000   1.0000   1.0000   1.0000   1.0000   1.0000
     1.0000   1.0000   1.0000   1.0000   1.0000   1.0000   1.0000   1.0000
     1.0000   1.0000   1.0000   1.0000   1.0000   1.0000   1.0000   1.0814
     1.0633   0.9520   0.6489   0.3818   0.0808   0.0025   0.0000   0.0000
     0.0000   0.0000   0.0000   0.0000   0.0000   0.0000   0.0000   0.0000
     0.0000   0.0000   0.0000   0.0000   0.0000   0.0000   0.0000   0.0000
     0.0000

          k = 0.0000 0.1481 0.0000 (287592 PWs)   bands (ev):

   -48.4610 -48.4610 -48.4609 -48.4609 -48.2078 -48.2078 -48.2070 -48.2070
   -48.1720 -48.1720 -48.1713 -48.1713 -48.0683 -48.0682 -48.0682 -48.0682
   -47.9958 -47.9958 -47.9958 -47.9957 -47.9648 -47.9602 -47.9602 -47.9558
   -47.9148 -47.9130 -47.9095 -47.9077 -47.8911 -47.8907 -47.8896 -47.8895
   -47.8799 -47.8793 -47.8772 -47.8765  -4.8028  -4.3781  -3.7630  -3.5870
    -3.3508  -3.1349  -3.1185  -3.0830  -2.8854  -2.7617  -2.6584  -2.4195
    -2.3213  -2.2760  -2.1767  -2.1558  -2.0900  -1.9542  -1.7045  -1.6734
    -1.6578  -1.5620  -1.4348  -1.3366  -1.1475  -1.1359  -1.1005  -0.8971
    -0.8620  -0.8116  -0.6001  -0.5463  -0.5177  -0.4238  -0.2907  -0.1153
    -0.1106  -0.0062   0.0307   0.0713   0.0742   0.1210   0.1489   0.2414
     0.3545

     occupation numbers 
     1.0000   1.0000   1.0000   1.0000   1.0000   1.0000   1.0000   1.0000
     1.0000   1.0000   1.0000   1.0000   1.0000   1.0000   1.0000   1.0000
     1.0000   1.0000   1.0000   1.0000   1.0000   1.0000   1.0000   1.0000
     1.0000   1.0000   1.0000   1.0000   1.0000   1.0000   1.0000   1.0000
     1.0000   1.0000   1.0000   1.0000   1.0000   1.0000   1.0000   1.0000
     1.0000   1.0000   1.0000   1.0000   1.0000   1.0000   1.0000   1.0000
     1.0000   1.0000   1.0000   1.0000   1.0000   1.0000   1.0253   1.0434
     1.0540   1.0634   0.5613   0.1367   0.0006   0.0004   0.0001   0.0000
     0.0000   0.0000   0.0000   0.0000   0.0000   0.0000   0.0000   0.0000
     0.0000   0.0000   0.0000   0.0000   0.0000   0.0000   0.0000   0.0000
     0.0000

          k = 0.0000 0.2963 0.0000 (287510 PWs)   bands (ev):

   -48.4610 -48.4610 -48.4609 -48.4609 -48.2078 -48.2078 -48.2070 -48.2070
   -48.1720 -48.1720 -48.1713 -48.1713 -48.0683 -48.0682 -48.0682 -48.0682
   -47.9958 -47.9958 -47.9958 -47.9957 -47.9648 -47.9602 -47.9602 -47.9558
   -47.9148 -47.9130 -47.9094 -47.9077 -47.8911 -47.8907 -47.8896 -47.8895
   -47.8799 -47.8793 -47.8772 -47.8765  -4.7238  -4.2962  -3.6764  -3.6265
    -3.5308  -3.1593  -3.1560  -3.0651  -3.0352  -2.9964  -2.6879  -2.5700
    -2.4575  -2.3743  -2.1986  -1.9841  -1.8782  -1.7311  -1.6736  -1.6701
    -1.5976  -1.5126  -1.2914  -1.2544  -1.2380  -1.1521  -1.1030  -1.0572
    -0.8896  -0.7405  -0.7213  -0.4984  -0.4146  -0.4045  -0.3024  -0.1679
    -0.0905   0.0322   0.0445   0.0956   0.1666   0.2695   0.3626   0.4779
     0.5206

     occupation numbers 
     1.0000   1.0000   1.0000   1.0000   1.0000   1.0000   1.0000   1.0000
     1.0000   1.0000   1.0000   1.0000   1.0000   1.0000   1.0000   1.0000
     1.0000   1.0000   1.0000   1.0000   1.0000   1.0000   1.0000   1.0000
     1.0000   1.0000   1.0000   1.0000   1.0000   1.0000   1.0000   1.0000
     1.0000   1.0000   1.0000   1.0000   1.0000   1.0000   1.0000   1.0000
     1.0000   1.0000   1.0000   1.0000   1.0000   1.0000   1.0000   1.0000
     1.0000   1.0000   1.0000   1.0000   1.0001   1.0144   1.0433   1.0456
     1.0833   0.9446   0.0521   0.0202   0.0127   0.0007   0.0001   0.0000
     0.0000   0.0000   0.0000   0.0000   0.0000   0.0000   0.0000   0.0000
     0.0000   0.0000   0.0000   0.0000   0.0000   0.0000   0.0000   0.0000
     0.0000

          k = 0.0000 0.4444 0.0000 (287562 PWs)   bands (ev):

   -48.4610 -48.4610 -48.4609 -48.4609 -48.2078 -48.2078 -48.2070 -48.2070
   -48.1720 -48.1720 -48.1713 -48.1713 -48.0683 -48.0682 -48.0682 -48.0682
   -47.9958 -47.9958 -47.9958 -47.9957 -47.9648 -47.9602 -47.9602 -47.9559
   -47.9149 -47.9130 -47.9094 -47.9077 -47.8911 -47.8907 -47.8896 -47.8895
   -47.8799 -47.8793 -47.8772 -47.8765  -4.5919  -4.1603  -3.8755  -3.6133
    -3.5384  -3.4116  -3.2597  -3.1448  -2.9101  -2.8511  -2.7873  -2.7426
    -2.4536  -2.4380  -2.1178  -2.0796  -1.9760  -1.9030  -1.7727  -1.6731
    -1.4448  -1.3915  -1.3272  -1.2663  -1.1122  -1.0316  -0.9251  -0.8749
    -0.8579  -0.8398  -0.5334  -0.5061  -0.4208  -0.3160  -0.2235  -0.1424
    -0.0917   0.0384   0.1595   0.2689   0.2884   0.3181   0.4901   0.5028
     0.5991

     occupation numbers 
     1.0000   1.0000   1.0000   1.0000   1.0000   1.0000   1.0000   1.0000
     1.0000   1.0000   1.0000   1.0000   1.0000   1.0000   1.0000   1.0000
     1.0000   1.0000   1.0000   1.0000   1.0000   1.0000   1.0000   1.0000
     1.0000   1.0000   1.0000   1.0000   1.0000   1.0000   1.0000   1.0000
     1.0000   1.0000   1.0000   1.0000   1.0000   1.0000   1.0000   1.0000
     1.0000   1.0000   1.0000   1.0000   1.0000   1.0000   1.0000   1.0000
     1.0000   1.0000   1.0000   1.0000   1.0000   1.0000   1.0050   1.0436
     0.6168   0.3371   0.1138   0.0278   0.0001   0.0000   0.0000   0.0000
     0.0000   0.0000   0.0000   0.0000   0.0000   0.0000   0.0000   0.0000
     0.0000   0.0000   0.0000   0.0000   0.0000   0.0000   0.0000   0.0000
     0.0000

          k = 0.0000 0.5926 0.0000 (287567 PWs)   bands (ev):

   -48.4610 -48.4610 -48.4609 -48.4609 -48.2078 -48.2078 -48.2070 -48.2070
   -48.1720 -48.1720 -48.1713 -48.1713 -48.0683 -48.0682 -48.0682 -48.0682
   -47.9958 -47.9958 -47.9958 -47.9957 -47.9648 -47.9602 -47.9602 -47.9559
   -47.9149 -47.9130 -47.9094 -47.9077 -47.8911 -47.8907 -47.8897 -47.8895
   -47.8799 -47.8793 -47.8772 -47.8765  -4.4075  -4.1685  -3.9682  -3.7230
    -3.5475  -3.4293  -3.3245  -3.0790  -3.0623  -2.9613  -2.6459  -2.6113
    -2.3806  -2.3590  -2.2855  -2.2696  -2.1243  -1.9061  -1.8204  -1.6265
    -1.5271  -1.5157  -1.4801  -1.1556  -1.0254  -0.9264  -0.8276  -0.7857
    -0.7774  -0.5178  -0.4150  -0.4020  -0.3667  -0.2906  -0.1008  -0.0939
    -0.0028   0.0689   0.1076   0.2600   0.3551   0.4478   0.5150   0.6023
     0.6260

     occupation numbers 
     1.0000   1.0000   1.0000   1.0000   1.0000   1.0000   1.0000   1.0000
     1.0000   1.0000   1.0000   1.0000   1.0000   1.0000   1.0000   1.0000
     1.0000   1.0000   1.0000   1.0000   1.0000   1.0000   1.0000   1.0000
     1.0000   1.0000   1.0000   1.0000   1.0000   1.0000   1.0000   1.0000
     1.0000   1.0000   1.0000   1.0000   1.0000   1.0000   1.0000   1.0000
     1.0000   1.0000   1.0000   1.0000   1.0000   1.0000   1.0000   1.0000
     1.0000   1.0000   1.0000   1.0000   1.0000   1.0000   1.0012   1.0743
     0.9918   0.9556   0.8045   0.0008   0.0000   0.0000   0.0000   0.0000
     0.0000   0.0000   0.0000   0.0000   0.0000   0.0000   0.0000   0.0000
     0.0000   0.0000   0.0000   0.0000   0.0000   0.0000   0.0000   0.0000
     0.0000

          k = 0.1429-0.0476 0.0000 (287660 PWs)   bands (ev):

   -48.4610 -48.4610 -48.4609 -48.4609 -48.2078 -48.2077 -48.2070 -48.2070
   -48.1720 -48.1719 -48.1713 -48.1713 -48.0683 -48.0682 -48.0682 -48.0682
   -47.9958 -47.9958 -47.9958 -47.9957 -47.9647 -47.9612 -47.9592 -47.9559
   -47.9147 -47.9130 -47.9094 -47.9078 -47.8911 -47.8907 -47.8897 -47.8896
   -47.8799 -47.8794 -47.8772 -47.8765  -4.8019  -4.3769  -3.8481  -3.7615
    -3.3894  -3.0892  -3.0847  -2.8077  -2.7115  -2.6483  -2.6085  -2.5015
    -2.3332  -2.2678  -2.2015  -2.1696  -2.0196  -1.9867  -1.8969  -1.7246
    -1.6016  -1.5134  -1.2890  -1.2601  -1.2123  -1.1566  -1.0870  -1.0641
    -0.8177  -0.6917  -0.5882  -0.5419  -0.4300  -0.4242  -0.3343  -0.3276
    -0.2161  -0.1203  -0.0123   0.0159   0.0165   0.0877   0.1551   0.2062
     0.3209

     occupation numbers 
     1.0000   1.0000   1.0000   1.0000   1.0000   1.0000   1.0000   1.0000
     1.0000   1.0000   1.0000   1.0000   1.0000   1.0000   1.0000   1.0000
     1.0000   1.0000   1.0000   1.0000   1.0000   1.0000   1.0000   1.0000
     1.0000   1.0000   1.0000   1.0000   1.0000   1.0000   1.0000   1.0000
     1.0000   1.0000   1.0000   1.0000   1.0000   1.0000   1.0000   1.0000
     1.0000   1.0000   1.0000   1.0000   1.0000   1.0000   1.0000   1.0000
     1.0000   1.0000   1.0000   1.0000   1.0000   1.0000   1.0001   1.0167
     1.0830   0.9474   0.0492   0.0236   0.0058   0.0008   0.0000   0.0000
     0.0000   0.0000   0.0000   0.0000   0.0000   0.0000   0.0000   0.0000
     0.0000   0.0000   0.0000   0.0000   0.0000   0.0000   0.0000   0.0000
     0.0000

          k = 0.1429 0.1005 0.0000 (287652 PWs)   bands (ev):

   -48.4610 -48.4610 -48.4609 -48.4609 -48.2078 -48.2077 -48.2070 -48.2070
   -48.1720 -48.1719 -48.1713 -48.1713 -48.0683 -48.0682 -48.0682 -48.0682
   -47.9958 -47.9958 -47.9958 -47.9957 -47.9647 -47.9612 -47.9592 -47.9559
   -47.9147 -47.9131 -47.9094 -47.9078 -47.8911 -47.8906 -47.8897 -47.8896
   -47.8799 -47.8794 -47.8771 -47.8765  -4.7925  -4.3672  -3.7512  -3.7208
    -3.2615  -3.1985  -3.0749  -2.9821  -2.9678  -2.7192  -2.6021  -2.4938
    -2.4859  -2.3224  -2.2608  -2.0046  -1.8737  -1.8627  -1.8568  -1.7931
    -1.7427  -1.4180  -1.2887  -1.2259  -1.1779  -1.1046  -1.0360  -0.9444
    -0.9234  -0.6283  -0.5684  -0.5380  -0.4591  -0.4053  -0.2871  -0.2322
    -0.2241  -0.1737  -0.0475  -0.0006   0.0062   0.0852   0.2378   0.2827
     0.3580

     occupation numbers 
     1.0000   1.0000   1.0000   1.0000   1.0000   1.0000   1.0000   1.0000
     1.0000   1.0000   1.0000   1.0000   1.0000   1.0000   1.0000   1.0000
     1.0000   1.0000   1.0000   1.0000   1.0000   1.0000   1.0000   1.0000
     1.0000   1.0000   1.0000   1.0000   1.0000   1.0000   1.0000   1.0000
     1.0000   1.0000   1.0000   1.0000   1.0000   1.0000   1.0000   1.0000
     1.0000   1.0000   1.0000   1.0000   1.0000   1.0000   1.0000   1.0000
     1.0000   1.0000   1.0000   1.0000   1.0002   1.0003   1.0003   1.0028
     1.0109   0.4699   0.0488   0.0089   0.0018   0.0001   0.0000   0.0000
     0.0000   0.0000   0.0000   0.0000   0.0000   0.0000   0.0000   0.0000
     0.0000   0.0000   0.0000   0.0000   0.0000   0.0000   0.0000   0.0000
     0.0000

          k = 0.1429 0.2487 0.0000 (287592 PWs)   bands (ev):

   -48.4610 -48.4610 -48.4609 -48.4609 -48.2078 -48.2077 -48.2070 -48.2070
   -48.1720 -48.1719 -48.1713 -48.1713 -48.0682 -48.0682 -48.0682 -48.0682
   -47.9958 -47.9958 -47.9958 -47.9957 -47.9647 -47.9612 -47.9592 -47.9559
   -47.9147 -47.9131 -47.9094 -47.9078 -47.8911 -47.8906 -47.8897 -47.8896
   -47.8799 -47.8794 -47.8771 -47.8765  -4.7304  -4.3029  -3.6831  -3.5420
    -3.3850  -3.2732  -3.2554  -3.0778  -3.0027  -2.9161  -2.8109  -2.7747
    -2.3812  -2.2247  -2.1935  -2.1145  -2.0535  -1.7902  -1.6552  -1.5235
    -1.4999  -1.3783  -1.2894  -1.2684  -1.1816  -1.1117  -1.0629  -0.9457
    -0.8381  -0.6558  -0.6251  -0.5151  -0.5117  -0.4582  -0.3485  -0.2410
    -0.1476   0.0459   0.0579   0.0865   0.1260   0.2585   0.2955   0.4322
     0.4485

     occupation numbers 
     1.0000   1.0000   1.0000   1.0000   1.0000   1.0000   1.0000   1.0000
     1.0000   1.0000   1.0000   1.0000   1.0000   1.0000   1.0000   1.0000
     1.0000   1.0000   1.0000   1.0000   1.0000   1.0000   1.0000   1.0000
     1.0000   1.0000   1.0000   1.0000   1.0000   1.0000   1.0000   1.0000
     1.0000   1.0000   1.0000   1.0000   1.0000   1.0000   1.0000   1.0000
     1.0000   1.0000   1.0000   1.0000   1.0000   1.0000   1.0000   1.0000
     1.0000   1.0000   1.0000   1.0000   1.0000   1.0030   1.0558   0.9811
     0.8950   0.2786   0.0496   0.0294   0.0021   0.0001   0.0000   0.0000
     0.0000   0.0000   0.0000   0.0000   0.0000   0.0000   0.0000   0.0000
     0.0000   0.0000   0.0000   0.0000   0.0000   0.0000   0.0000   0.0000
     0.0000

          k = 0.1429 0.3968 0.0000 (287560 PWs)   bands (ev):

   -48.4610 -48.4610 -48.4609 -48.4609 -48.2078 -48.2077 -48.2070 -48.2070
   -48.1720 -48.1719 -48.1713 -48.1713 -48.0682 -48.0682 -48.0682 -48.0682
   -47.9958 -47.9958 -47.9958 -47.9957 -47.9647 -47.9612 -47.9592 -47.9559
   -47.9148 -47.9131 -47.9094 -47.9078 -47.8911 -47.8906 -47.8897 -47.8895
   -47.8799 -47.8794 -47.8771 -47.8765  -4.6156  -4.1844  -3.7466  -3.5591
    -3.5125  -3.3094  -3.2843  -3.2591  -3.0487  -2.8743  -2.8470  -2.7785
    -2.6054  -2.3518  -2.1505  -2.1021  -2.0571  -1.8668  -1.6279  -1.5006
    -1.3802  -1.2710  -1.2528  -1.2059  -1.1349  -1.0453  -0.9886  -0.9425
    -0.8188  -0.6851  -0.6434  -0.5213  -0.4607  -0.3868  -0.3085  -0.1366
    -0.0174   0.0516   0.0953   0.2394   0.3117   0.4478   0.4658   0.4808
     0.5298

     occupation numbers 
     1.0000   1.0000   1.0000   1.0000   1.0000   1.0000   1.0000   1.0000
     1.0000   1.0000   1.0000   1.0000   1.0000   1.0000   1.0000   1.0000
     1.0000   1.0000   1.0000   1.0000   1.0000   1.0000   1.0000   1.0000
     1.0000   1.0000   1.0000   1.0000   1.0000   1.0000   1.0000   1.0000
     1.0000   1.0000   1.0000   1.0000   1.0000   1.0000   1.0000   1.0000
     1.0000   1.0000   1.0000   1.0000   1.0000   1.0000   1.0000   1.0000
     1.0000   1.0000   1.0000   1.0000   1.0000   1.0002   1.0735   0.8979
     0.2869   0.0314   0.0193   0.0047   0.0004   0.0000   0.0000   0.0000
     0.0000   0.0000   0.0000   0.0000   0.0000   0.0000   0.0000   0.0000
     0.0000   0.0000   0.0000   0.0000   0.0000   0.0000   0.0000   0.0000
     0.0000

          k = 0.1429 0.5450 0.0000 (287462 PWs)   bands (ev):

   -48.4610 -48.4610 -48.4609 -48.4609 -48.2078 -48.2077 -48.2070 -48.2070
   -48.1720 -48.1719 -48.1713 -48.1713 -48.0682 -48.0682 -48.0682 -48.0682
   -47.9958 -47.9958 -47.9958 -47.9957 -47.9646 -47.9612 -47.9592 -47.9560
   -47.9148 -47.9131 -47.9093 -47.9078 -47.8911 -47.8906 -47.8897 -47.8895
   -47.8799 -47.8793 -47.8771 -47.8765  -4.4480  -4.0600  -4.0065  -3.6983
    -3.6099  -3.3664  -3.2393  -3.2099  -3.0258  -2.9416  -2.7303  -2.6856
    -2.6062  -2.5027  -2.2422  -2.0139  -1.9162  -1.8943  -1.8128  -1.7853
    -1.4341  -1.3819  -1.2339  -1.1902  -1.0748  -1.0246  -0.9263  -0.7936
[...]
     atom    9 type  1   force =     0.00006358    0.33566523    9.53496899
     atom   10 type  1   force =     0.00000615    0.15460161   -6.56461121
     atom   11 type  1   force =    -0.00006615   -0.00793882   -3.42296243
     atom   12 type  1   force =    -0.00010982   -0.02940049   -0.75102477
     atom   13 type  1   force =    -0.00008081    0.06000633    2.36476281
     atom   14 type  1   force =     0.00010257   -0.06303810    4.75002228
     atom   15 type  1   force =    -0.00005797    0.05499495    7.77121116
     atom   16 type  1   force =    -0.00000540    0.08403433   10.12987727
     atom   17 type  1   force =     0.00016087    0.31573154  -10.83010278
     atom   18 type  1   force =    -0.00008225   -0.33582198   -9.53550015
     atom   19 type  1   force =    -0.00015778   -0.31584128   10.82931436
     atom   20 type  1   force =    -0.00001083   -0.08430726  -10.13071435
     atom   21 type  1   force =     0.00004987   -0.05443083   -7.76985989
     atom   22 type  1   force =    -0.00013834    0.06310815   -4.75100533
     atom   23 type  1   force =     0.00008394   -0.06039249   -2.36575518
     atom   24 type  1   force =     0.00008611    0.03010222    0.75313300
     atom   25 type  1   force =     0.00008554    0.00708845    3.42243023
     atom   26 type  1   force =     0.00000860   -0.15415875    6.56580485
     atom   27 type  1   force =     0.00010059    0.33564707    9.53500933
     atom   28 type  1   force =    -0.00008526    0.15464610   -6.56457097
     atom   29 type  1   force =    -0.00014447   -0.00792773   -3.42291524
     atom   30 type  1   force =    -0.00018804   -0.02933362   -0.75099180
     atom   31 type  1   force =    -0.00006604    0.05994774    2.36478308
     atom   32 type  1   force =     0.00015292   -0.06301754    4.75002447
     atom   33 type  1   force =    -0.00015068    0.05505426    7.77124014
     atom   34 type  1   force =    -0.00005377    0.08403602   10.12993574
     atom   35 type  1   force =     0.00010734    0.31575898  -10.83012033
     atom   36 type  1   force =    -0.00007891   -0.33581380   -9.53556574
     The local contribution  to forces
     atom    1 type  1   force =     0.00000306    0.30954335  -10.77926483
     atom    2 type  1   force =    -0.00009713    0.06457438   10.02375260
     atom    3 type  1   force =    -0.00019250    0.06043656    7.63417992
     atom    4 type  1   force =     0.00010788   -0.05553317    4.66725048
     atom    5 type  1   force =    -0.00009006    0.05710621    2.32280004
     atom    6 type  1   force =    -0.00025939   -0.03358950   -0.73788981
     atom    7 type  1   force =    -0.00011737   -0.00280325   -3.36391310
     atom    8 type  1   force =    -0.00008853    0.14081001   -6.44673530
     atom    9 type  1   force =    -0.00005715   -0.31169780   -9.40909062
     atom   10 type  1   force =     0.00000852   -0.14122657    6.44536433
     atom   11 type  1   force =     0.00005353    0.00365755    3.36420840
     atom   12 type  1   force =     0.00015774    0.03291365    0.73553820
     atom   13 type  1   force =     0.00011211   -0.05669786   -2.32214950
     atom   14 type  1   force =    -0.00008803    0.05544241   -4.66656872
     atom   15 type  1   force =     0.00009745   -0.06093077   -7.63572165
     atom   16 type  1   force =     0.00003004   -0.06425536  -10.02310482
     atom   17 type  1   force =    -0.00004889   -0.30942799   10.77978217
     atom   18 type  1   force =     0.00007587    0.31186043    9.40940272
     atom   19 type  1   force =     0.00004611    0.30953063  -10.77926133
     atom   20 type  1   force =    -0.00001436    0.06454901   10.02371486
     atom   21 type  1   force =    -0.00008963    0.06039881    7.63413939
     atom   22 type  1   force =     0.00012278   -0.05551450    4.66727688
     atom   23 type  1   force =    -0.00011505    0.05708656    2.32282693
     atom   24 type  1   force =    -0.00013395   -0.03364161   -0.73791851
     atom   25 type  1   force =    -0.00007281   -0.00280557   -3.36396898
     atom   26 type  1   force =    -0.00002348    0.14077653   -6.44680094
     atom   27 type  1   force =    -0.00009319   -0.31168002   -9.40913157
     atom   28 type  1   force =     0.00010004   -0.14127130    6.44532321
     atom   29 type  1   force =     0.00012995    0.00364811    3.36416156
     atom   30 type  1   force =     0.00023429    0.03284745    0.73550534
     atom   31 type  1   force =     0.00009721   -0.05663858   -2.32216945
     atom   32 type  1   force =    -0.00013717    0.05542022   -4.66657086
     atom   33 type  1   force =     0.00018897   -0.06098954   -7.63575127
     atom   34 type  1   force =     0.00007841   -0.06425636  -10.02316557
     atom   35 type  1   force =     0.00000343   -0.30945429   10.77979831
     atom   36 type  1   force =     0.00007155    0.31185279    9.40946969
     The core correction contribution to forces
     atom    1 type  1   force =     0.00000000    0.00000000    0.00000000
     atom    2 type  1   force =     0.00000000    0.00000000    0.00000000
     atom    3 type  1   force =     0.00000000    0.00000000    0.00000000
     atom    4 type  1   force =     0.00000000    0.00000000    0.00000000
     atom    5 type  1   force =     0.00000000    0.00000000    0.00000000
     atom    6 type  1   force =     0.00000000    0.00000000    0.00000000
     atom    7 type  1   force =     0.00000000    0.00000000    0.00000000
     atom    8 type  1   force =     0.00000000    0.00000000    0.00000000
     atom    9 type  1   force =     0.00000000    0.00000000    0.00000000
     atom   10 type  1   force =     0.00000000    0.00000000    0.00000000
     atom   11 type  1   force =     0.00000000    0.00000000    0.00000000
     atom   12 type  1   force =     0.00000000    0.00000000    0.00000000
     atom   13 type  1   force =     0.00000000    0.00000000    0.00000000
     atom   14 type  1   force =     0.00000000    0.00000000    0.00000000
     atom   15 type  1   force =     0.00000000    0.00000000    0.00000000
     atom   16 type  1   force =     0.00000000    0.00000000    0.00000000
     atom   17 type  1   force =     0.00000000    0.00000000    0.00000000
     atom   18 type  1   force =     0.00000000    0.00000000    0.00000000
     atom   19 type  1   force =     0.00000000    0.00000000    0.00000000
     atom   20 type  1   force =     0.00000000    0.00000000    0.00000000
     atom   21 type  1   force =     0.00000000    0.00000000    0.00000000
     atom   22 type  1   force =     0.00000000    0.00000000    0.00000000
     atom   23 type  1   force =     0.00000000    0.00000000    0.00000000
     atom   24 type  1   force =     0.00000000    0.00000000    0.00000000
     atom   25 type  1   force =     0.00000000    0.00000000    0.00000000
     atom   26 type  1   force =     0.00000000    0.00000000    0.00000000
     atom   27 type  1   force =     0.00000000    0.00000000    0.00000000
     atom   28 type  1   force =     0.00000000    0.00000000    0.00000000
     atom   29 type  1   force =     0.00000000    0.00000000    0.00000000
     atom   30 type  1   force =     0.00000000    0.00000000    0.00000000
     atom   31 type  1   force =     0.00000000    0.00000000    0.00000000
     atom   32 type  1   force =     0.00000000    0.00000000    0.00000000
     atom   33 type  1   force =     0.00000000    0.00000000    0.00000000
     atom   34 type  1   force =     0.00000000    0.00000000    0.00000000
     atom   35 type  1   force =     0.00000000    0.00000000    0.00000000
     atom   36 type  1   force =     0.00000000    0.00000000    0.00000000
     The Hubbard contrib.    to forces
     atom    1 type  1   force =     0.00000000    0.00000000    0.00000000
     atom    2 type  1   force =     0.00000000    0.00000000    0.00000000
     atom    3 type  1   force =     0.00000000    0.00000000    0.00000000
     atom    4 type  1   force =     0.00000000    0.00000000    0.00000000
     atom    5 type  1   force =     0.00000000    0.00000000    0.00000000
     atom    6 type  1   force =     0.00000000    0.00000000    0.00000000
     atom    7 type  1   force =     0.00000000    0.00000000    0.00000000
     atom    8 type  1   force =     0.00000000    0.00000000    0.00000000
     atom    9 type  1   force =     0.00000000    0.00000000    0.00000000
     atom   10 type  1   force =     0.00000000    0.00000000    0.00000000
     atom   11 type  1   force =     0.00000000    0.00000000    0.00000000
     atom   12 type  1   force =     0.00000000    0.00000000    0.00000000
     atom   13 type  1   force =     0.00000000    0.00000000    0.00000000
     atom   14 type  1   force =     0.00000000    0.00000000    0.00000000
     atom   15 type  1   force =     0.00000000    0.00000000    0.00000000
     atom   16 type  1   force =     0.00000000    0.00000000    0.00000000
     atom   17 type  1   force =     0.00000000    0.00000000    0.00000000
     atom   18 type  1   force =     0.00000000    0.00000000    0.00000000
     atom   19 type  1   force =     0.00000000    0.00000000    0.00000000
     atom   20 type  1   force =     0.00000000    0.00000000    0.00000000
     atom   21 type  1   force =     0.00000000    0.00000000    0.00000000
     atom   22 type  1   force =     0.00000000    0.00000000    0.00000000
     atom   23 type  1   force =     0.00000000    0.00000000    0.00000000
     atom   24 type  1   force =     0.00000000    0.00000000    0.00000000
     atom   25 type  1   force =     0.00000000    0.00000000    0.00000000
     atom   26 type  1   force =     0.00000000    0.00000000    0.00000000
     atom   27 type  1   force =     0.00000000    0.00000000    0.00000000
     atom   28 type  1   force =     0.00000000    0.00000000    0.00000000
     atom   29 type  1   force =     0.00000000    0.00000000    0.00000000
     atom   30 type  1   force =     0.00000000    0.00000000    0.00000000
     atom   31 type  1   force =     0.00000000    0.00000000    0.00000000
     atom   32 type  1   force =     0.00000000    0.00000000    0.00000000
     atom   33 type  1   force =     0.00000000    0.00000000    0.00000000
     atom   34 type  1   force =     0.00000000    0.00000000    0.00000000
     atom   35 type  1   force =     0.00000000    0.00000000    0.00000000
     atom   36 type  1   force =     0.00000000    0.00000000    0.00000000
     The SCF correction term to forces
     atom    1 type  1   force =     0.00000001    0.00000001    0.00000090
     atom    2 type  1   force =     0.00000001    0.00000046   -0.00000024
     atom    3 type  1   force =    -0.00000005   -0.00000006    0.00000007
     atom    4 type  1   force =    -0.00000007    0.00000003   -0.00000029
     atom    5 type  1   force =    -0.00000005   -0.00000000    0.00000000
     atom    6 type  1   force =     0.00000002   -0.00000002    0.00000034
     atom    7 type  1   force =    -0.00000005    0.00000000    0.00000054
     atom    8 type  1   force =    -0.00000006    0.00000007    0.00000073
     atom    9 type  1   force =    -0.00000006   -0.00000002    0.00000140
     atom   10 type  1   force =     0.00000000   -0.00000001   -0.00000037
     atom   11 type  1   force =    -0.00000004    0.00000000   -0.00000012
     atom   12 type  1   force =    -0.00000007    0.00000005    0.00000019
     atom   13 type  1   force =    -0.00000008    0.00000004    0.00000049
     atom   14 type  1   force =    -0.00000005    0.00000000    0.00000067
     atom   15 type  1   force =    -0.00000001    0.00000007    0.00000035
     atom   16 type  1   force =    -0.00000003   -0.00000042    0.00000049
     atom   17 type  1   force =    -0.00000002    0.00000001   -0.00000100
     atom   18 type  1   force =    -0.00000002   -0.00000002   -0.00000099
     atom   19 type  1   force =    -0.00000003    0.00000001    0.00000094
     atom   20 type  1   force =     0.00000003    0.00000046   -0.00000029
     atom   21 type  1   force =     0.00000005   -0.00000008    0.00000004
     atom   22 type  1   force =     0.00000007   -0.00000001   -0.00000030
     atom   23 type  1   force =     0.00000006   -0.00000004    0.00000002
     atom   24 type  1   force =    -0.00000000   -0.00000002    0.00000034
     atom   25 type  1   force =     0.00000006   -0.00000003    0.00000055
     atom   26 type  1   force =     0.00000008    0.00000002    0.00000072
     atom   27 type  1   force =     0.00000003   -0.00000005    0.00000137
     atom   28 type  1   force =    -0.00000001   -0.00000001   -0.00000044
     atom   29 type  1   force =     0.00000004   -0.00000002   -0.00000014
     atom   30 type  1   force =     0.00000008    0.00000000    0.00000017
     atom   31 type  1   force =     0.00000008   -0.00000001    0.00000048
     atom   32 type  1   force =     0.00000005   -0.00000003    0.00000066
     atom   33 type  1   force =    -0.00000001    0.00000007    0.00000042
     atom   34 type  1   force =     0.00000002   -0.00000043    0.00000053
     atom   35 type  1   force =     0.00000004   -0.00000000   -0.00000100
     atom   36 type  1   force =     0.00000005   -0.00000004   -0.00000095

     Total force =     0.000996     Total SCF correction =     0.000004
     Energy error            =      2.0E-06 Ry
     Gradient error          =      2.8E-04 Ry/Bohr

     bfgs converged in  27 scf cycles and  25 bfgs steps
     (criteria: energy <  1.0E-05 Ry, force <  3.9E-04 Ry/Bohr)

     End of BFGS Geometry Optimization

     Final energy             =    -541.6631546422 Ry

     File ./Li/Lithium.bfgs deleted, as requested
Begin final coordinates

ATOMIC_POSITIONS (angstrom)
Li               0.0011385418       -0.0594449486       29.6062594203
Li               2.4281972588        4.0024250990       20.6433678437
Li               2.4285759093        0.9050246782       21.8294782504
Li               4.8584129823        4.7736186948       22.9471062715
Li               4.8581636332        1.6508428673       23.9564059196
Li               2.4288897677        5.6968258092       25.2119712009
Li               2.4285074305        2.3956696258       26.3112555603
Li               4.8582276447        6.4795944622       27.5301745069
Li               4.8585626433        3.2594698615       28.8139637372
Li               2.4288068444        6.4748507578       22.2864999701
Li               2.4295137523        3.2726493344       23.5039683426
Li               4.8581304570        7.2575033930       24.6039766386
Li               4.8579365565        4.0170503964       25.8583080258
Li               4.8576844844        0.8940727541       26.8682896841
Li               2.4294292436        4.7621410245       27.9875383154
Li               2.4298177766        1.6654484546       29.1733131867
Li               4.8569066972        5.7278067449       20.2104234409
Li               4.8575341929        2.4081395082       21.0027828636
Li               4.8591757064       -0.0594523639       29.6062807652
Li               7.2862810791        4.0023989143       20.6433937808
Li               7.2866629519        0.9050110993       21.8295033713
Li               9.7164584078        4.7736108687       22.9470952790
Li               9.7161967479        1.6508384591       23.9563796432
Li               7.2869870949        5.6968042452       25.2119822494
Li               7.2865692329        2.3956658484       26.3112868075
Li               9.7163013654        6.4795900971       27.5301927946
Li               9.7165890650        3.2594794987       28.8139754431
Li               7.2868889054        6.4748387058       22.2865203444
Li               7.2875814968        3.2726426924       23.5039898460
Li               9.7162138447        7.2574645650       24.6039909096
Li               9.7159708108        4.0170814579       25.8583189874
Li               9.7157130927        0.8940733657       26.8682952405
Li               7.2875162448        4.7621203883       27.9875544102
Li               7.2878788758        1.6654316843       29.1733412963
Li               9.7149612684        5.7277967504       20.2104395099
Li               9.7155773478        2.4081194141       21.0027601003
End final coordinates



     Writing all to output data dir ./Li/Lithium.save/ :
     XML data file
     init_run     :     22.04s CPU     29.92s WALL (       1 calls)
     electrons    :  15053.95s CPU  18896.32s WALL (      27 calls)
     update_pot   :      4.36s CPU      5.19s WALL (      26 calls)
     forces       :    774.03s CPU    809.15s WALL (      27 calls)

     Called by init_run:
     wfcinit      :      3.18s CPU      4.01s WALL (       1 calls)
     wfcinit:wfcr :      2.85s CPU      3.68s WALL (      16 calls)
     potinit      :      0.96s CPU      1.02s WALL (       1 calls)
     hinit0       :      9.34s CPU     15.91s WALL (       1 calls)

     Called by electrons:
     c_bands      :   8547.69s CPU  11110.38s WALL (     430 calls)
     sum_band     :    624.11s CPU    828.63s WALL (     430 calls)
     v_of_rho     :     50.51s CPU     65.38s WALL (     431 calls)
     v_h          :      4.30s CPU      5.46s WALL (     431 calls)
     v_xc         :     46.20s CPU     59.89s WALL (     431 calls)
     newd         :     20.95s CPU     30.74s WALL (     431 calls)
     PAW_pot      :      4.30s CPU      5.70s WALL (     457 calls)
     mix_rho      :    124.94s CPU    158.81s WALL (     430 calls)

     Called by c_bands:
     init_us_2    :    162.50s CPU    164.07s WALL (   14624 calls)
     cegterg      :   7824.52s CPU   9393.37s WALL (    7277 calls)

     Called by sum_band:
     sum_band:wei :      0.84s CPU      0.97s WALL (     430 calls)
     sum_band:loo :    597.19s CPU    793.10s WALL (     430 calls)
     sum_band:buf :     13.00s CPU     13.87s WALL (    6880 calls)
     sum_band:ini :     78.05s CPU     78.30s WALL (    6880 calls)
     sum_band:cal :    108.13s CPU    119.95s WALL (    7296 calls)
     sum_band:bec :      1.00s CPU      1.12s WALL (    7296 calls)
     addusdens    :     18.59s CPU     22.79s WALL (     430 calls)
                                        0.00s GPU  (     430 calls)
     addusd:skk   :      3.65s CPU      4.94s WALL (     430 calls)
                                        0.00s GPU  (     430 calls)

     Called by *egterg:
     cdiaghg      :   2082.94s CPU   2154.48s WALL (   84642 calls)
     cegterg:over :    598.16s CPU    655.28s WALL (   78339 calls)
     cegterg:upda :    457.35s CPU    467.46s WALL (   78339 calls)
     cegterg:last :    124.07s CPU    124.70s WALL (    8321 calls)
     h_psi        :   3916.58s CPU   5306.23s WALL (   85632 calls)
     s_psi        :    441.34s CPU    447.62s WALL (   85632 calls)
     g_psi        :      6.67s CPU      7.08s WALL (   78339 calls)

     Called by h_psi:
     h_psi:calbec :    555.53s CPU    628.15s WALL (   85632 calls)
     vloc_psi     :   2890.57s CPU   4192.59s WALL (   85632 calls)
                                        0.00s GPU  (   85632 calls)
     add_vuspsi   :    446.43s CPU    454.40s WALL (   85632 calls)

     General routines
     calbec       :    685.75s CPU    771.93s WALL (   94656 calls)
     fft          :     41.52s CPU     63.88s WALL (    5655 calls)
     ffts         :     65.66s CPU     87.96s WALL (   47232 calls)
     fftw         :   3117.32s CPU   4536.70s WALL ( 4610324 calls)
     interpolate  :      4.50s CPU      5.70s WALL (     431 calls)

     Parallel routines

     PAW routines
     PAW_pot      :      4.30s CPU      5.70s WALL (     457 calls)

     Environ routines

     PWSCF        :      4h32m CPU      5h39m WALL


   This run was terminated on:   8:59: 9   5Jan2025            

=------------------------------------------------------------------------------=
   JOB DONE.
=------------------------------------------------------------------------------=
