
     Program PWSCF v.7.4 starts on 25Dec2024 at 13:37:55 

     This program is part of the open-source Quantum ESPRESSO suite
     for quantum simulation of materials; please cite
         "P. Giannozzi et al., J. Phys.:Condens. Matter 21 395502 (2009);
         "P. Giannozzi et al., J. Phys.:Condens. Matter 29 465901 (2017);
         "P. Giannozzi et al., J. Chem. Phys. 152 154105 (2020);
          URL http://www.quantum-espresso.org", 
     in publications or presentations arising from this work. More details at
     http://www.quantum-espresso.org/quote

     Parallel version (MPI & OpenMP), running on     192 processor cores
     Number of MPI processes:               192
     Threads/MPI process:                     1

     MPI processes distributed on     1 nodes
     656400 MiB available memory on the printing compute node when the environment starts
 
     Reading input from espresso.pwi
Warning: card &CELL ignored
Warning: card    PRESS_CONV_THR   = 0.1 ignored
Warning: card    CELL_DOFREE      = 'ALL' ignored
Warning: card / ignored
Warning: card &FCP ignored
Warning: card / ignored
Warning: card &RISM ignored
Warning: card / ignored

     Current dimensions of program PWSCF are:
     Max number of different atomic species (ntypx) = 10
     Max number of k-points (npk) =  40000
     Max angular momentum in pseudopotentials (lmaxx) =  4

     IMPORTANT: XC functional enforced from input :
     Exchange-correlation= PBE
                           (   1   4   3   4   0   0   0)
     Any further DFT definition will be discarded
     Please, verify this is what you really want

 
     Reading input from environ.in:
     * using ionic solvent mode
     * setting boundary derivatives method to SSCS default
     * setting electrolyte-boundary derivatives method to SSCS default

Environ Warning (1001): card EOF ignored

     
 
     R & G space division:  proc/nbgrp/npool/nimage =     192
     Subspace diagonalization in iterative solution of the eigenvalue problem:
     a serial algorithm will be used

 
     Parallelization info
     --------------------
     sticks:   dense  smooth     PW     G-vecs:    dense   smooth      PW
     Min          39      15      4                21093     5291     754
     Max          40      16      5                21168     5378     811
     Sum        7593    3025    841              4056641  1025567  148303
 
     Using Slab Decomposition
 


     bravais-lattice index     =           14
     lattice parameter (alat)  =      11.2436  a.u.
     unit-cell volume          =   10615.2843 (a.u.)^3
     number of atoms/cell      =           16
     number of atomic types    =            1
     number of electrons       =        48.00
     number of Kohn-Sham states=           36
     kinetic-energy cutoff     =      80.0000  Ry
     charge density cutoff     =     800.0000  Ry
     scf convergence threshold =      1.0E-14
     mixing beta               =       0.2000
     number of iterations used =            8  local-TF  mixing
     Exchange-correlation= PBE
                           (   1   4   3   4   0   0   0)

     ================================================================================
 
                                  Environ Setup Summary

     ================================================================================
 
     Please cite

          O. Andreussi, I. Dabo and N. Marzari, J. Chem. Phys. 136, 064102 (2012)
          F. Nattino, M. Truscott, N. Marzari, and O. Andreussi, J. Chem. Phys. 150, 041722 (2019)

     in publications or presentations arising from this work.

     ================================================================================
 
     Parameters
     ==========

     compensation onset threshold      =               0.1000E+00
     static permittivity               =                    89.90
     surface tension in input (dyn/cm) =                    37.30
     surface tension in internal units =               0.4792E-04

     Solvent Boundary
     ================

     solvent mode                      =                    ionic
     derivatives method                =                   lowmem
     electrolyte derivatives method    =                   lowmem
     numerical core for derivatives    =                      fft
     switching function adopted        =                     SCCS
     density limit for vacuum region   =               0.5000E-02
     density limit for bulk solvent    =               0.1000E-03
     soft-sphere radius mode           =                    bondi
     soft-sphere softness              =                     0.50
     alpha                             =                     1.32

     Electrostatic Setup
     ===================

     electrostatic problem to solve    =                    modpb
     numerical solver adopted          =                   newton
     type of auxiliary density adopted =                     none
     numerical core for poisson        =                      fft
     adopting a nested solver scheme
     inner solver                      =                       cg
     inner core                        =                      fft
     type of pbc corrections           =                parabolic
     numerical core for corrections    =                      1da

     ================================================================================
 

     celldm(1)=  11.243615  celldm(2)=   1.000000  celldm(3)=   7.921182
     celldm(4)=   0.000000  celldm(5)=   0.000000  celldm(6)=  -0.333333

     crystal axes: (cart. coord. in units of alat)
               a(1) = (   1.000000   0.000000   0.000000 )  
               a(2) = (  -0.333333   0.942809   0.000000 )  
               a(3) = (   0.000000   0.000000   7.921182 )  

     reciprocal axes: (cart. coord. in units 2 pi/alat)
               b(1) = (  1.000000  0.353553  0.000000 )  
               b(2) = (  0.000000  1.060660  0.000000 )  
               b(3) = (  0.000000  0.000000  0.126244 )  


     PseudoPot. # 1 for Li read from file:
     /home/ba3g18/Repos/Pseudopotentials/pslibrary.1.0.0/pbe/PSEUDOPOTENTIALS/Li.pbe-sl-kjpaw_psl.1.0.0.UPF
     MD5 check sum: 3f4d2cafebb47c6c3aa8ed472e6f074d
     Pseudo is Projector augmented-wave, Zval =  3.0
     Generated using 'atomic' code by A. Dal Corso  v.7.4
     Shape of augmentation charge: PSQ
     Using radial grid of 1017 points,  4 beta functions with: 
                l(1) =   0
                l(2) =   0
                l(3) =   1
                l(4) =   1
     Q(r) pseudized with 0 coefficients 


     atomic species   valence    mass     pseudopotential
     Li                3.00     6.94000     Li( 1.00)

      2 Sym. Ops. (no inversion) found


                                    s                        frac. trans.

      isym =  1     identity                                     

 cryst.   s( 1) = (     1          0          0      )
                  (     0          1          0      )
                  (     0          0          1      )

 cart.    s( 1) = (  1.0000000  0.0000000  0.0000000 )
                  (  0.0000000  1.0000000  0.0000000 )
                  (  0.0000000  0.0000000  1.0000000 )


      isym =  2     180 deg rotation - cart. axis [0,0,1]        

 cryst.   s( 2) = (    -1          0          0      )
                  (     0         -1          0      )
                  (     0          0          1      )

 cart.    s( 2) = ( -1.0000000  0.0000000  0.0000000 )
                  (  0.0000000 -1.0000000  0.0000000 )
                  (  0.0000000  0.0000000  1.0000000 )


     point group C_2  (2)   
     there are  2 classes
     the character table:

       E     C2   
A      1.00  1.00
B      1.00 -1.00

     the symmetry operations in each class and the name of the first element:

     E        1
          identity                                               
     C2       2
          180 deg rotation - cart. axis [0,0,1]                  

   Cartesian axes

     site n.     atom                  positions (alat units)
         1        Li     tau(   1) = (   0.1666620   0.2357045   3.3634848  )
         2        Li     tau(   2) = (   0.3333333   0.4714046   3.7575258  )
         3        Li     tau(   3) = (   0.1666724   0.2356999   4.1636470  )
         4        Li     tau(   4) = (   0.3333333   0.4714046   4.5576956  )
         5        Li     tau(   5) = (   0.0000037   0.7071107   3.3634986  )
         6        Li     tau(   6) = (   0.1666667   0.9428090   3.7575379  )
         7        Li     tau(   7) = (  -0.0000058   0.7071014   4.1636551  )
         8        Li     tau(   8) = (   0.1666667   0.9428090   4.5576991  )
         9        Li     tau(   9) = (   0.6666630   0.2356983   3.3634986  )
        10        Li     tau(  10) = (   0.8333333   0.4714046   3.7575349  )
        11        Li     tau(  11) = (   0.6666725   0.2357077   4.1636551  )
        12        Li     tau(  12) = (   0.8333333   0.4714046   4.5577110  )
        13        Li     tau(  13) = (   0.5000047   0.7071046   3.3634848  )
        14        Li     tau(  14) = (   0.6666667   0.9428090   3.7575265  )
        15        Li     tau(  15) = (   0.4999943   0.7071091   4.1636470  )
        16        Li     tau(  16) = (   0.6666667   0.9428090   4.5576957  )

   Crystallographic axes

     site n.     atom                  positions (cryst. coord.)
         1        Li     tau(   1) = (  0.2499961  0.2500024  0.4246190  )
         2        Li     tau(   2) = (  0.4999999  0.5000001  0.4743643  )
         3        Li     tau(   3) = (  0.2500049  0.2499975  0.5256345  )
         4        Li     tau(   4) = (  0.4999999  0.5000001  0.5753807  )
         5        Li     tau(   5) = (  0.2500049  0.7500042  0.4246208  )
         6        Li     tau(   6) = (  0.4999997  1.0000001  0.4743658  )
         7        Li     tau(   7) = (  0.2499921  0.7499943  0.5256356  )
         8        Li     tau(   8) = (  0.4999997  1.0000000  0.5753812  )
         9        Li     tau(   9) = (  0.7499948  0.2499959  0.4246208  )
        10        Li     tau(  10) = (  0.9999999  0.5000001  0.4743654  )
        11        Li     tau(  11) = (  0.7500076  0.2500058  0.5256356  )
        12        Li     tau(  12) = (  0.9999999  0.5000001  0.5753827  )
        13        Li     tau(  13) = (  0.7500036  0.7499977  0.4246190  )
        14        Li     tau(  14) = (  0.9999997  1.0000000  0.4743643  )
        15        Li     tau(  15) = (  0.7499948  0.7500025  0.5256345  )
        16        Li     tau(  16) = (  0.9999997  1.0000000  0.5753807  )

     number of k points=    61  Marzari-Vanderbilt smearing, width (Ry)=  0.0100
                       cart. coord. in units 2pi/alat
        k(    1) = (   0.0000000   0.0000000   0.0000000), wk =   0.0165289
        k(    2) = (   0.0000000   0.0964237   0.0000000), wk =   0.0330579
        k(    3) = (   0.0000000   0.1928473   0.0000000), wk =   0.0330579
        k(    4) = (   0.0000000   0.2892710   0.0000000), wk =   0.0330579
        k(    5) = (   0.0000000   0.3856946   0.0000000), wk =   0.0330579
        k(    6) = (   0.0000000   0.4821183   0.0000000), wk =   0.0330579
        k(    7) = (   0.0909091   0.0321412   0.0000000), wk =   0.0330579
        k(    8) = (   0.0909091   0.1285648   0.0000000), wk =   0.0330579
        k(    9) = (   0.0909091   0.2249885   0.0000000), wk =   0.0330579
        k(   10) = (   0.0909091   0.3214122   0.0000000), wk =   0.0330579
        k(   11) = (   0.0909091   0.4178358   0.0000000), wk =   0.0330579
        k(   12) = (   0.0909091   0.5142595   0.0000000), wk =   0.0330579
        k(   13) = (   0.0909091  -0.4499771   0.0000000), wk =   0.0330579
        k(   14) = (   0.0909091  -0.3535534   0.0000000), wk =   0.0330579
        k(   15) = (   0.0909091  -0.2571298   0.0000000), wk =   0.0330579
        k(   16) = (   0.0909091  -0.1607061   0.0000000), wk =   0.0330579
        k(   17) = (   0.0909091  -0.0642825   0.0000000), wk =   0.0330579
        k(   18) = (   0.1818182   0.0642824   0.0000000), wk =   0.0330579
        k(   19) = (   0.1818182   0.1607060   0.0000000), wk =   0.0330579
        k(   20) = (   0.1818182   0.2571297   0.0000000), wk =   0.0330579
        k(   21) = (   0.1818182   0.3535533   0.0000000), wk =   0.0330579
        k(   22) = (   0.1818182   0.4499770   0.0000000), wk =   0.0330579
        k(   23) = (   0.1818182   0.5464007   0.0000000), wk =   0.0330579
        k(   24) = (   0.1818182  -0.4178359   0.0000000), wk =   0.0330579
        k(   25) = (   0.1818182  -0.3214123   0.0000000), wk =   0.0330579
        k(   26) = (   0.1818182  -0.2249886   0.0000000), wk =   0.0330579
        k(   27) = (   0.1818182  -0.1285649   0.0000000), wk =   0.0330579
        k(   28) = (   0.1818182  -0.0321413   0.0000000), wk =   0.0330579
        k(   29) = (   0.2727273   0.0964236   0.0000000), wk =   0.0330579
        k(   30) = (   0.2727273   0.1928472   0.0000000), wk =   0.0330579
        k(   31) = (   0.2727273   0.2892709   0.0000000), wk =   0.0330579
        k(   32) = (   0.2727273   0.3856945   0.0000000), wk =   0.0330579
        k(   33) = (   0.2727273   0.4821182   0.0000000), wk =   0.0330579
        k(   34) = (   0.2727273   0.5785418   0.0000000), wk =   0.0330579
        k(   35) = (   0.2727273  -0.3856947   0.0000000), wk =   0.0330579
        k(   36) = (   0.2727273  -0.2892711   0.0000000), wk =   0.0330579
        k(   37) = (   0.2727273  -0.1928474   0.0000000), wk =   0.0330579
        k(   38) = (   0.2727273  -0.0964238   0.0000000), wk =   0.0330579
        k(   39) = (   0.2727273  -0.0000001   0.0000000), wk =   0.0330579
        k(   40) = (   0.3636364   0.1285647   0.0000000), wk =   0.0330579
        k(   41) = (   0.3636364   0.2249884   0.0000000), wk =   0.0330579
        k(   42) = (   0.3636364   0.3214121   0.0000000), wk =   0.0330579
        k(   43) = (   0.3636364   0.4178357   0.0000000), wk =   0.0330579
        k(   44) = (   0.3636364   0.5142594   0.0000000), wk =   0.0330579
        k(   45) = (   0.3636364   0.6106830   0.0000000), wk =   0.0330579
        k(   46) = (   0.3636364  -0.3535535   0.0000000), wk =   0.0330579
        k(   47) = (   0.3636364  -0.2571299   0.0000000), wk =   0.0330579
        k(   48) = (   0.3636364  -0.1607062   0.0000000), wk =   0.0330579
        k(   49) = (   0.3636364  -0.0642826   0.0000000), wk =   0.0330579
        k(   50) = (   0.3636364   0.0321411   0.0000000), wk =   0.0330579
        k(   51) = (   0.4545455   0.1607059   0.0000000), wk =   0.0330579
        k(   52) = (   0.4545455   0.2571296   0.0000000), wk =   0.0330579
        k(   53) = (   0.4545455   0.3535532   0.0000000), wk =   0.0330579
        k(   54) = (   0.4545455   0.4499769   0.0000000), wk =   0.0330579
        k(   55) = (   0.4545455   0.5464006   0.0000000), wk =   0.0330579
        k(   56) = (   0.4545455   0.6428242   0.0000000), wk =   0.0330579
        k(   57) = (   0.4545455  -0.3214123   0.0000000), wk =   0.0330579
        k(   58) = (   0.4545455  -0.2249887   0.0000000), wk =   0.0330579
        k(   59) = (   0.4545455  -0.1285650   0.0000000), wk =   0.0330579
        k(   60) = (   0.4545455  -0.0321414   0.0000000), wk =   0.0330579
        k(   61) = (   0.4545455   0.0642823   0.0000000), wk =   0.0330579

                       cryst. coord.
        k(    1) = (   0.0000000   0.0000000   0.0000000), wk =   0.0165289
        k(    2) = (   0.0000000   0.0909091   0.0000000), wk =   0.0330579
        k(    3) = (   0.0000000   0.1818182   0.0000000), wk =   0.0330579
        k(    4) = (   0.0000000   0.2727273   0.0000000), wk =   0.0330579
        k(    5) = (   0.0000000   0.3636364   0.0000000), wk =   0.0330579
        k(    6) = (   0.0000000   0.4545455   0.0000000), wk =   0.0330579
        k(    7) = (   0.0909091   0.0000000   0.0000000), wk =   0.0330579
        k(    8) = (   0.0909091   0.0909091   0.0000000), wk =   0.0330579
        k(    9) = (   0.0909091   0.1818182   0.0000000), wk =   0.0330579
        k(   10) = (   0.0909091   0.2727273   0.0000000), wk =   0.0330579
        k(   11) = (   0.0909091   0.3636364   0.0000000), wk =   0.0330579
        k(   12) = (   0.0909091   0.4545455   0.0000000), wk =   0.0330579
        k(   13) = (   0.0909091  -0.4545455   0.0000000), wk =   0.0330579
        k(   14) = (   0.0909091  -0.3636364   0.0000000), wk =   0.0330579
        k(   15) = (   0.0909091  -0.2727273   0.0000000), wk =   0.0330579
        k(   16) = (   0.0909091  -0.1818182   0.0000000), wk =   0.0330579
        k(   17) = (   0.0909091  -0.0909091   0.0000000), wk =   0.0330579
        k(   18) = (   0.1818182   0.0000000   0.0000000), wk =   0.0330579
        k(   19) = (   0.1818182   0.0909091   0.0000000), wk =   0.0330579
        k(   20) = (   0.1818182   0.1818182   0.0000000), wk =   0.0330579
        k(   21) = (   0.1818182   0.2727273   0.0000000), wk =   0.0330579
        k(   22) = (   0.1818182   0.3636364   0.0000000), wk =   0.0330579
        k(   23) = (   0.1818182   0.4545455   0.0000000), wk =   0.0330579
        k(   24) = (   0.1818182  -0.4545455   0.0000000), wk =   0.0330579
        k(   25) = (   0.1818182  -0.3636364   0.0000000), wk =   0.0330579
        k(   26) = (   0.1818182  -0.2727273   0.0000000), wk =   0.0330579
        k(   27) = (   0.1818182  -0.1818182   0.0000000), wk =   0.0330579
        k(   28) = (   0.1818182  -0.0909091   0.0000000), wk =   0.0330579
        k(   29) = (   0.2727273   0.0000000   0.0000000), wk =   0.0330579
        k(   30) = (   0.2727273   0.0909091   0.0000000), wk =   0.0330579
        k(   31) = (   0.2727273   0.1818182   0.0000000), wk =   0.0330579
        k(   32) = (   0.2727273   0.2727273   0.0000000), wk =   0.0330579
        k(   33) = (   0.2727273   0.3636364   0.0000000), wk =   0.0330579
        k(   34) = (   0.2727273   0.4545455   0.0000000), wk =   0.0330579
        k(   35) = (   0.2727273  -0.4545455   0.0000000), wk =   0.0330579
        k(   36) = (   0.2727273  -0.3636364   0.0000000), wk =   0.0330579
        k(   37) = (   0.2727273  -0.2727273   0.0000000), wk =   0.0330579
        k(   38) = (   0.2727273  -0.1818182   0.0000000), wk =   0.0330579
        k(   39) = (   0.2727273  -0.0909091   0.0000000), wk =   0.0330579
        k(   40) = (   0.3636364   0.0000000   0.0000000), wk =   0.0330579
        k(   41) = (   0.3636364   0.0909091   0.0000000), wk =   0.0330579
        k(   42) = (   0.3636364   0.1818182   0.0000000), wk =   0.0330579
        k(   43) = (   0.3636364   0.2727273   0.0000000), wk =   0.0330579
        k(   44) = (   0.3636364   0.3636364   0.0000000), wk =   0.0330579
        k(   45) = (   0.3636364   0.4545455   0.0000000), wk =   0.0330579
        k(   46) = (   0.3636364  -0.4545455   0.0000000), wk =   0.0330579
        k(   47) = (   0.3636364  -0.3636364   0.0000000), wk =   0.0330579
        k(   48) = (   0.3636364  -0.2727273   0.0000000), wk =   0.0330579
        k(   49) = (   0.3636364  -0.1818182   0.0000000), wk =   0.0330579
        k(   50) = (   0.3636364  -0.0909091   0.0000000), wk =   0.0330579
        k(   51) = (   0.4545455   0.0000000   0.0000000), wk =   0.0330579
        k(   52) = (   0.4545455   0.0909091   0.0000000), wk =   0.0330579
        k(   53) = (   0.4545455   0.1818182   0.0000000), wk =   0.0330579
        k(   54) = (   0.4545455   0.2727273   0.0000000), wk =   0.0330579
        k(   55) = (   0.4545455   0.3636364   0.0000000), wk =   0.0330579
        k(   56) = (   0.4545455   0.4545455   0.0000000), wk =   0.0330579
        k(   57) = (   0.4545455  -0.4545455   0.0000000), wk =   0.0330579
        k(   58) = (   0.4545455  -0.3636364   0.0000000), wk =   0.0330579
        k(   59) = (   0.4545455  -0.2727273   0.0000000), wk =   0.0330579
        k(   60) = (   0.4545455  -0.1818182   0.0000000), wk =   0.0330579
        k(   61) = (   0.4545455  -0.0909091   0.0000000), wk =   0.0330579

     Dense  grid:  4056641 G-vectors     FFT dimensions: ( 108, 108, 810)

     Smooth grid:  1025567 G-vectors     FFT dimensions: (  72,  72, 512)

     Dynamical RAM for                 wfc:       0.37 MB

     Dynamical RAM for     wfc (w. buffer):      22.75 MB

     Dynamical RAM for           str. fact:       0.32 MB

     Dynamical RAM for           local pot:       0.00 MB

     Dynamical RAM for          nlocal pot:       1.30 MB

     Dynamical RAM for                qrad:       0.65 MB

     Dynamical RAM for          rho,v,vnew:       2.30 MB

     Dynamical RAM for               rhoin:       0.77 MB

     Dynamical RAM for            rho*nmix:       5.17 MB

     Dynamical RAM for           G-vectors:       1.25 MB

     Dynamical RAM for          h,s,v(r/c):       0.24 MB

     Dynamical RAM for          <psi|beta>:       0.07 MB

     Dynamical RAM for                 psi:       0.73 MB

     Dynamical RAM for                hpsi:       0.73 MB

     Dynamical RAM for                spsi:       0.73 MB

     Dynamical RAM for      wfcinit/wfcrot:       0.76 MB

     Dynamical RAM for           addusdens:      19.06 MB

     Dynamical RAM for          addusforce:      28.92 MB

     Estimated static dynamical RAM per process >      32.22 MB

     Estimated max dynamical RAM per process >      66.31 MB

     Estimated total dynamical RAM >      12.43 GB

     Initial potential from superposition of free atoms

     starting charge      47.9263, renormalised to      48.0000

     negative rho (up, down):  1.937E-03 0.000E+00
     Starting wfcs are random
     Checking if some PAW data can be deallocated... 

     total cpu time spent up to now is        5.9 secs

     Self-consistent Calculation

     iteration #  1     ecut=    80.00 Ry     beta= 0.20
     Davidson diagonalization with overlap

---- Real-time Memory Report at c_bands before calling an iterative solver
           356 MiB given to the printing process from OS
             0 MiB allocation reported by mallinfo(arena+hblkhd)
        633188 MiB available memory on the node where the printing process lives
------------------
     ethr =  1.00E-02,  avg # of iterations = 12.0

     negative rho (up, down):  3.296E-05 0.000E+00

     total cpu time spent up to now is       21.6 secs

     total energy              =    -239.74989794 Ry
     estimated scf accuracy    <       2.09758394 Ry
     electrostatic embedding   =       0.00000000 Ry
     cavitation energy         =       0.01235683 Ry
     electrolyte free energy   =       0.00456895 Ry
     correction to one-el term =       0.00000000 Ry

     iteration #  2     ecut=    80.00 Ry     beta= 0.20
     Davidson diagonalization with overlap

---- Real-time Memory Report at c_bands before calling an iterative solver
           431 MiB given to the printing process from OS
             0 MiB allocation reported by mallinfo(arena+hblkhd)
        633614 MiB available memory on the node where the printing process lives
------------------
     ethr =  4.37E-03,  avg # of iterations =  4.5

     negative rho (up, down):  1.069E-07 0.000E+00

     total cpu time spent up to now is       27.8 secs

     total energy              =    -240.12711912 Ry
     estimated scf accuracy    <       0.85969514 Ry
     electrostatic embedding   =       0.00000000 Ry
     cavitation energy         =       0.01235683 Ry
     electrolyte free energy   =       0.00456895 Ry
     correction to one-el term =       0.00000000 Ry

     iteration #  3     ecut=    80.00 Ry     beta= 0.20
     Davidson diagonalization with overlap

---- Real-time Memory Report at c_bands before calling an iterative solver
           456 MiB given to the printing process from OS
             0 MiB allocation reported by mallinfo(arena+hblkhd)
        633257 MiB available memory on the node where the printing process lives
------------------
     ethr =  1.79E-03,  avg # of iterations =  4.4

     negative rho (up, down):  3.224E-08 0.000E+00

     total cpu time spent up to now is       34.7 secs

     total energy              =    -240.49076377 Ry
     estimated scf accuracy    <       0.13273389 Ry
     electrostatic embedding   =       0.00000000 Ry
     cavitation energy         =       0.01235683 Ry
     electrolyte free energy   =       0.00456895 Ry
     correction to one-el term =       0.00000000 Ry

     iteration #  4     ecut=    80.00 Ry     beta= 0.20
     Davidson diagonalization with overlap

---- Real-time Memory Report at c_bands before calling an iterative solver
           467 MiB given to the printing process from OS
             0 MiB allocation reported by mallinfo(arena+hblkhd)
        633012 MiB available memory on the node where the printing process lives
------------------
     ethr =  2.77E-04,  avg # of iterations =  6.4

     total cpu time spent up to now is       42.2 secs

     total energy              =    -240.56409687 Ry
     estimated scf accuracy    <       0.17754806 Ry
     electrostatic embedding   =       0.00000000 Ry
     cavitation energy         =       0.01235683 Ry
     electrolyte free energy   =       0.00456895 Ry
     correction to one-el term =       0.00000000 Ry

     iteration #  5     ecut=    80.00 Ry     beta= 0.20
     Davidson diagonalization with overlap

---- Real-time Memory Report at c_bands before calling an iterative solver
           477 MiB given to the printing process from OS
             0 MiB allocation reported by mallinfo(arena+hblkhd)
        632912 MiB available memory on the node where the printing process lives
------------------
     ethr =  2.77E-04,  avg # of iterations =  1.2

     total cpu time spent up to now is       46.7 secs

     total energy              =    -240.55253782 Ry
     estimated scf accuracy    <       0.26590209 Ry
     electrostatic embedding   =       0.00000000 Ry
     cavitation energy         =       0.01235683 Ry
     electrolyte free energy   =       0.00456895 Ry
     correction to one-el term =       0.00000000 Ry

     iteration #  6     ecut=    80.00 Ry     beta= 0.20
     Davidson diagonalization with overlap

---- Real-time Memory Report at c_bands before calling an iterative solver
           484 MiB given to the printing process from OS
             0 MiB allocation reported by mallinfo(arena+hblkhd)
        632817 MiB available memory on the node where the printing process lives
------------------
     ethr =  2.77E-04,  avg # of iterations =  1.0

     total cpu time spent up to now is       51.0 secs

     total energy              =    -240.53839661 Ry
     estimated scf accuracy    <       0.13186213 Ry
     electrostatic embedding   =       0.00000000 Ry
     cavitation energy         =       0.01235683 Ry
     electrolyte free energy   =       0.00456895 Ry
     correction to one-el term =       0.00000000 Ry

     iteration #  7     ecut=    80.00 Ry     beta= 0.20
     Davidson diagonalization with overlap

---- Real-time Memory Report at c_bands before calling an iterative solver
           491 MiB given to the printing process from OS
             0 MiB allocation reported by mallinfo(arena+hblkhd)
        632726 MiB available memory on the node where the printing process lives
------------------
     ethr =  2.75E-04,  avg # of iterations =  1.4

     add environment contribution to local potential

     total cpu time spent up to now is       56.8 secs

     total energy              =    -240.54135561 Ry
     estimated scf accuracy    <       0.03606492 Ry
     electrostatic embedding   =       0.00000000 Ry
     cavitation energy         =       0.01235683 Ry
     electrolyte free energy   =       0.00456895 Ry
     correction to one-el term =       0.00000000 Ry

     iteration #  8     ecut=    80.00 Ry     beta= 0.20
     Davidson diagonalization with overlap

---- Real-time Memory Report at c_bands before calling an iterative solver
           503 MiB given to the printing process from OS
             0 MiB allocation reported by mallinfo(arena+hblkhd)
        632399 MiB available memory on the node where the printing process lives
------------------
     c_bands:  1 eigenvalues not converged
     c_bands:  1 eigenvalues not converged
     c_bands:  1 eigenvalues not converged
     c_bands:  1 eigenvalues not converged
     c_bands:  1 eigenvalues not converged
     c_bands:  2 eigenvalues not converged
     c_bands:  1 eigenvalues not converged
     c_bands:  1 eigenvalues not converged
     c_bands:  2 eigenvalues not converged
     c_bands:  1 eigenvalues not converged
     c_bands:  1 eigenvalues not converged
     c_bands:  1 eigenvalues not converged
     c_bands:  2 eigenvalues not converged
     c_bands:  1 eigenvalues not converged
     c_bands:  1 eigenvalues not converged
     c_bands:  2 eigenvalues not converged
     c_bands:  1 eigenvalues not converged
     c_bands:  1 eigenvalues not converged
     c_bands:  1 eigenvalues not converged
     c_bands:  1 eigenvalues not converged
     c_bands:  1 eigenvalues not converged
     c_bands:  1 eigenvalues not converged
     c_bands:  1 eigenvalues not converged
     c_bands:  1 eigenvalues not converged
     c_bands:  1 eigenvalues not converged
     c_bands:  1 eigenvalues not converged
     ethr =  7.51E-05,  avg # of iterations = 15.7

     add environment contribution to local potential

     total cpu time spent up to now is       66.8 secs

     total energy              =    -240.55366839 Ry
     estimated scf accuracy    <       0.01044216 Ry
     electrostatic embedding   =      -0.01663090 Ry
     cavitation energy         =       0.01235683 Ry
     electrolyte free energy   =      -0.00065097 Ry
     correction to one-el term =      -3.60770282 Ry

     iteration #  9     ecut=    80.00 Ry     beta= 0.20
     Davidson diagonalization with overlap

---- Real-time Memory Report at c_bands before calling an iterative solver
           508 MiB given to the printing process from OS
             0 MiB allocation reported by mallinfo(arena+hblkhd)
        632304 MiB available memory on the node where the printing process lives
------------------
     c_bands:  1 eigenvalues not converged
     c_bands:  1 eigenvalues not converged
     c_bands:  1 eigenvalues not converged
     ethr =  2.18E-05,  avg # of iterations =  9.6

     negative rho (up, down):  2.732E-03 0.000E+00

     total cpu time spent up to now is       74.4 secs

     total energy              =    -240.56938198 Ry
     estimated scf accuracy    <       0.25855542 Ry
     electrostatic embedding   =      -0.02194529 Ry
     cavitation energy         =       0.01235683 Ry
     electrolyte free energy   =      -0.00184572 Ry
     correction to one-el term =      -2.58360908 Ry

     iteration # 10     ecut=    80.00 Ry     beta= 0.20
     Davidson diagonalization with overlap

---- Real-time Memory Report at c_bands before calling an iterative solver
           513 MiB given to the printing process from OS
             0 MiB allocation reported by mallinfo(arena+hblkhd)
        632234 MiB available memory on the node where the printing process lives
------------------
     ethr =  2.18E-05,  avg # of iterations =  5.8

     negative rho (up, down):  2.052E-03 0.000E+00

     total cpu time spent up to now is       79.7 secs

     total energy              =    -240.57914860 Ry
     estimated scf accuracy    <       0.26565154 Ry
     electrostatic embedding   =      -0.01996528 Ry
     cavitation energy         =       0.01235683 Ry
     electrolyte free energy   =      -0.00184572 Ry
     correction to one-el term =      -2.58756911 Ry

     iteration # 11     ecut=    80.00 Ry     beta= 0.20
     Davidson diagonalization with overlap

---- Real-time Memory Report at c_bands before calling an iterative solver
           517 MiB given to the printing process from OS
             0 MiB allocation reported by mallinfo(arena+hblkhd)
        632180 MiB available memory on the node where the printing process lives
------------------
     ethr =  2.18E-05,  avg # of iterations =  1.0

     negative rho (up, down):  1.834E-02 0.000E+00

     total cpu time spent up to now is       84.1 secs

     total energy              =    -240.57036431 Ry
     estimated scf accuracy    <       0.35217105 Ry
     electrostatic embedding   =      -0.02093069 Ry
     cavitation energy         =       0.01235683 Ry
     electrolyte free energy   =      -0.00184572 Ry
     correction to one-el term =      -2.58563830 Ry

     iteration # 12     ecut=    80.00 Ry     beta= 0.20
     Davidson diagonalization with overlap

---- Real-time Memory Report at c_bands before calling an iterative solver
           521 MiB given to the printing process from OS
             0 MiB allocation reported by mallinfo(arena+hblkhd)
        632134 MiB available memory on the node where the printing process lives
------------------
     ethr =  2.18E-05,  avg # of iterations =  3.7

     negative rho (up, down):  1.465E-02 0.000E+00

     total cpu time spent up to now is       89.1 secs

     total energy              =    -240.55913642 Ry
     estimated scf accuracy    <       0.24878499 Ry
     electrostatic embedding   =      -0.02083435 Ry
     cavitation energy         =       0.01235683 Ry
     electrolyte free energy   =      -0.00184572 Ry
     correction to one-el term =      -2.58583098 Ry

     iteration # 13     ecut=    80.00 Ry     beta= 0.20
     Davidson diagonalization with overlap

---- Real-time Memory Report at c_bands before calling an iterative solver
           524 MiB given to the printing process from OS
             0 MiB allocation reported by mallinfo(arena+hblkhd)
        632072 MiB available memory on the node where the printing process lives
------------------
     ethr =  2.18E-05,  avg # of iterations =  1.9

     negative rho (up, down):  1.239E-02 0.000E+00

     total cpu time spent up to now is       93.6 secs

     total energy              =    -240.56546581 Ry
     estimated scf accuracy    <       0.13293641 Ry
     electrostatic embedding   =      -0.01974107 Ry
     cavitation energy         =       0.01235683 Ry
     electrolyte free energy   =      -0.00184572 Ry
     correction to one-el term =      -2.58801754 Ry

     iteration # 14     ecut=    80.00 Ry     beta= 0.20
     Davidson diagonalization with overlap

---- Real-time Memory Report at c_bands before calling an iterative solver
           527 MiB given to the printing process from OS
             0 MiB allocation reported by mallinfo(arena+hblkhd)
        632028 MiB available memory on the node where the printing process lives
------------------
     ethr =  2.18E-05,  avg # of iterations =  1.0

     negative rho (up, down):  2.240E-02 0.000E+00

     total cpu time spent up to now is       98.0 secs

     total energy              =    -240.55167635 Ry
     estimated scf accuracy    <       0.18128272 Ry
     electrostatic embedding   =      -0.01971672 Ry
     cavitation energy         =       0.01235683 Ry
     electrolyte free energy   =      -0.00184572 Ry
     correction to one-el term =      -2.58806623 Ry

     iteration # 15     ecut=    80.00 Ry     beta= 0.20
     Davidson diagonalization with overlap

---- Real-time Memory Report at c_bands before calling an iterative solver
           530 MiB given to the printing process from OS
             0 MiB allocation reported by mallinfo(arena+hblkhd)
        631946 MiB available memory on the node where the printing process lives
------------------
     ethr =  2.18E-05,  avg # of iterations =  4.0

     negative rho (up, down):  2.661E-02 0.000E+00

     add environment contribution to local potential

     total cpu time spent up to now is      104.6 secs

     total energy              =    -240.54916789 Ry
     estimated scf accuracy    <       0.06181269 Ry
     electrostatic embedding   =      -0.01802727 Ry
     cavitation energy         =       0.01235683 Ry
     electrolyte free energy   =      -0.00184572 Ry
     correction to one-el term =      -2.59144514 Ry

     iteration # 16     ecut=    80.00 Ry     beta= 0.20
     Davidson diagonalization with overlap

---- Real-time Memory Report at c_bands before calling an iterative solver
           533 MiB given to the printing process from OS
             0 MiB allocation reported by mallinfo(arena+hblkhd)
        631897 MiB available memory on the node where the printing process lives
------------------
     ethr =  2.18E-05,  avg # of iterations =  4.3

     negative rho (up, down):  2.773E-02 0.000E+00

     add environment contribution to local potential

     total cpu time spent up to now is      111.1 secs

     total energy              =    -240.54830360 Ry
     estimated scf accuracy    <       0.01866116 Ry
     electrostatic embedding   =      -0.01448630 Ry
     cavitation energy         =       0.01235683 Ry
     electrolyte free energy   =      -0.00130708 Ry
     correction to one-el term =      -1.68847091 Ry

     iteration # 17     ecut=    80.00 Ry     beta= 0.20
     Davidson diagonalization with overlap

---- Real-time Memory Report at c_bands before calling an iterative solver
           535 MiB given to the printing process from OS
             0 MiB allocation reported by mallinfo(arena+hblkhd)
        631859 MiB available memory on the node where the printing process lives
------------------
     ethr =  2.18E-05,  avg # of iterations =  1.4

     negative rho (up, down):  9.966E-03 0.000E+00

     add environment contribution to local potential

     total cpu time spent up to now is      116.9 secs

     total energy              =    -240.55051495 Ry
     estimated scf accuracy    <       0.00412896 Ry
     electrostatic embedding   =      -0.01330795 Ry
     cavitation energy         =       0.01235683 Ry
     electrolyte free energy   =      -0.00108005 Ry
     correction to one-el term =      -1.62531368 Ry

     iteration # 18     ecut=    80.00 Ry     beta= 0.20
     Davidson diagonalization with overlap

---- Real-time Memory Report at c_bands before calling an iterative solver
           537 MiB given to the printing process from OS
             0 MiB allocation reported by mallinfo(arena+hblkhd)
        631818 MiB available memory on the node where the printing process lives
------------------
     c_bands:  1 eigenvalues not converged
     ethr =  8.60E-06,  avg # of iterations =  7.3

     negative rho (up, down):  8.968E-03 0.000E+00

     add environment contribution to local potential

     total cpu time spent up to now is      124.5 secs

     total energy              =    -240.54888492 Ry
     estimated scf accuracy    <       0.01207656 Ry
     electrostatic embedding   =      -0.01689535 Ry
     cavitation energy         =       0.01235683 Ry
     electrolyte free energy   =      -0.00137001 Ry
     correction to one-el term =      -1.42887580 Ry

     iteration # 19     ecut=    80.00 Ry     beta= 0.20
     Davidson diagonalization with overlap

---- Real-time Memory Report at c_bands before calling an iterative solver
           540 MiB given to the printing process from OS
             0 MiB allocation reported by mallinfo(arena+hblkhd)
        631802 MiB available memory on the node where the printing process lives
------------------
     ethr =  8.60E-06,  avg # of iterations =  7.1

     negative rho (up, down):  1.420E-02 0.000E+00

     add environment contribution to local potential

     total cpu time spent up to now is      131.4 secs

     total energy              =    -240.55030081 Ry
     estimated scf accuracy    <       0.00763522 Ry
     electrostatic embedding   =      -0.01427797 Ry
     cavitation energy         =       0.01235683 Ry
     electrolyte free energy   =      -0.00117412 Ry
     correction to one-el term =      -1.09491791 Ry

     iteration # 20     ecut=    80.00 Ry     beta= 0.20
     Davidson diagonalization with overlap

---- Real-time Memory Report at c_bands before calling an iterative solver
           545 MiB given to the printing process from OS
             0 MiB allocation reported by mallinfo(arena+hblkhd)
        631689 MiB available memory on the node where the printing process lives
------------------
     ethr =  8.60E-06,  avg # of iterations =  2.5

     negative rho (up, down):  1.351E-02 0.000E+00

     add environment contribution to local potential

     total cpu time spent up to now is      137.4 secs

     total energy              =    -240.54997727 Ry
     estimated scf accuracy    <       0.01071085 Ry
     electrostatic embedding   =      -0.01467421 Ry
     cavitation energy         =       0.01235683 Ry
     electrolyte free energy   =      -0.00122271 Ry
     correction to one-el term =      -1.04750083 Ry

     iteration # 21     ecut=    80.00 Ry     beta= 0.20
     Davidson diagonalization with overlap

---- Real-time Memory Report at c_bands before calling an iterative solver
           547 MiB given to the printing process from OS
             0 MiB allocation reported by mallinfo(arena+hblkhd)
        631660 MiB available memory on the node where the printing process lives
------------------
     ethr =  8.60E-06,  avg # of iterations =  1.0

     negative rho (up, down):  1.212E-02 0.000E+00

     add environment contribution to local potential

     total cpu time spent up to now is      143.1 secs

     total energy              =    -240.55007365 Ry
     estimated scf accuracy    <       0.00894113 Ry
     electrostatic embedding   =      -0.01455361 Ry
     cavitation energy         =       0.01235683 Ry
     electrolyte free energy   =      -0.00119297 Ry
     correction to one-el term =      -1.06998343 Ry

     iteration # 22     ecut=    80.00 Ry     beta= 0.20
     Davidson diagonalization with overlap

---- Real-time Memory Report at c_bands before calling an iterative solver
           549 MiB given to the printing process from OS
             0 MiB allocation reported by mallinfo(arena+hblkhd)
        631645 MiB available memory on the node where the printing process lives
------------------
     ethr =  8.60E-06,  avg # of iterations =  1.0

     negative rho (up, down):  1.512E-02 0.000E+00

     add environment contribution to local potential

     total cpu time spent up to now is      148.8 secs

     total energy              =    -240.55018955 Ry
     estimated scf accuracy    <       0.00958044 Ry
     electrostatic embedding   =      -0.01459160 Ry
     cavitation energy         =       0.01235683 Ry
     electrolyte free energy   =      -0.00118253 Ry
     correction to one-el term =      -1.13800298 Ry

     iteration # 23     ecut=    80.00 Ry     beta= 0.20
     Davidson diagonalization with overlap

---- Real-time Memory Report at c_bands before calling an iterative solver
           551 MiB given to the printing process from OS
             0 MiB allocation reported by mallinfo(arena+hblkhd)
        631608 MiB available memory on the node where the printing process lives
------------------
     ethr =  8.60E-06,  avg # of iterations =  1.7

     negative rho (up, down):  1.650E-02 0.000E+00

     add environment contribution to local potential

     total cpu time spent up to now is      154.7 secs

     total energy              =    -240.54955087 Ry
     estimated scf accuracy    <       0.01043181 Ry
     electrostatic embedding   =      -0.01447230 Ry
     cavitation energy         =       0.01235683 Ry
     electrolyte free energy   =      -0.00121758 Ry
     correction to one-el term =      -1.02222190 Ry

     iteration # 24     ecut=    80.00 Ry     beta= 0.20
     Davidson diagonalization with overlap

---- Real-time Memory Report at c_bands before calling an iterative solver
           552 MiB given to the printing process from OS
             0 MiB allocation reported by mallinfo(arena+hblkhd)
        631545 MiB available memory on the node where the printing process lives
------------------
     ethr =  8.60E-06,  avg # of iterations =  1.6

     negative rho (up, down):  1.575E-02 0.000E+00

     add environment contribution to local potential

     total cpu time spent up to now is      160.6 secs

     total energy              =    -240.54915757 Ry
     estimated scf accuracy    <       0.00575572 Ry
     electrostatic embedding   =      -0.01385838 Ry
     cavitation energy         =       0.01235683 Ry
     electrolyte free energy   =      -0.00111416 Ry
     correction to one-el term =      -0.93000075 Ry

     iteration # 25     ecut=    80.00 Ry     beta= 0.20
     Davidson diagonalization with overlap

---- Real-time Memory Report at c_bands before calling an iterative solver
           554 MiB given to the printing process from OS
             0 MiB allocation reported by mallinfo(arena+hblkhd)
        631401 MiB available memory on the node where the printing process lives
------------------
     ethr =  8.60E-06,  avg # of iterations =  5.6

     negative rho (up, down):  1.682E-02 0.000E+00

     add environment contribution to local potential

     total cpu time spent up to now is      167.3 secs

     total energy              =    -240.54962476 Ry
     estimated scf accuracy    <       0.00154407 Ry
     electrostatic embedding   =      -0.01150841 Ry
     cavitation energy         =       0.01235683 Ry
     electrolyte free energy   =      -0.00078982 Ry
     correction to one-el term =      -0.86962079 Ry

     iteration # 26     ecut=    80.00 Ry     beta= 0.20
     Davidson diagonalization with overlap

---- Real-time Memory Report at c_bands before calling an iterative solver
           555 MiB given to the printing process from OS
             0 MiB allocation reported by mallinfo(arena+hblkhd)
        631371 MiB available memory on the node where the printing process lives
------------------
     ethr =  3.22E-06,  avg # of iterations =  9.3

     negative rho (up, down):  1.627E-02 0.000E+00

     add environment contribution to local potential

     total cpu time spent up to now is      175.7 secs

     total energy              =    -240.54982624 Ry
     estimated scf accuracy    <       0.00095477 Ry
     electrostatic embedding   =      -0.01107601 Ry
     cavitation energy         =       0.01235683 Ry
     electrolyte free energy   =      -0.00077111 Ry
     correction to one-el term =      -0.64172005 Ry

     iteration # 27     ecut=    80.00 Ry     beta= 0.20
     Davidson diagonalization with overlap

---- Real-time Memory Report at c_bands before calling an iterative solver
           557 MiB given to the printing process from OS
             0 MiB allocation reported by mallinfo(arena+hblkhd)
        631340 MiB available memory on the node where the printing process lives
------------------
     c_bands:  1 eigenvalues not converged
     ethr =  1.99E-06,  avg # of iterations =  4.6

     negative rho (up, down):  2.244E-02 0.000E+00

     add environment contribution to local potential

     total cpu time spent up to now is      182.0 secs

     total energy              =    -240.54970204 Ry
     estimated scf accuracy    <       0.00069126 Ry
     electrostatic embedding   =      -0.01107346 Ry
     cavitation energy         =       0.01235683 Ry
     electrolyte free energy   =      -0.00080644 Ry
     correction to one-el term =      -0.59098020 Ry

     iteration # 28     ecut=    80.00 Ry     beta= 0.20
     Davidson diagonalization with overlap

---- Real-time Memory Report at c_bands before calling an iterative solver
           558 MiB given to the printing process from OS
             0 MiB allocation reported by mallinfo(arena+hblkhd)
        631318 MiB available memory on the node where the printing process lives
------------------
     ethr =  1.44E-06,  avg # of iterations =  7.1

     negative rho (up, down):  2.154E-02 0.000E+00

     add environment contribution to local potential

     total cpu time spent up to now is      189.4 secs

     total energy              =    -240.55009448 Ry
     estimated scf accuracy    <       0.00022168 Ry
     electrostatic embedding   =      -0.00996887 Ry
     cavitation energy         =       0.01235683 Ry
     electrolyte free energy   =      -0.00075665 Ry
     correction to one-el term =       0.13104329 Ry

     iteration # 29     ecut=    80.00 Ry     beta= 0.20
     Davidson diagonalization with overlap

---- Real-time Memory Report at c_bands before calling an iterative solver
           559 MiB given to the printing process from OS
             0 MiB allocation reported by mallinfo(arena+hblkhd)
        631270 MiB available memory on the node where the printing process lives
------------------
     ethr =  4.62E-07,  avg # of iterations =  1.6

     negative rho (up, down):  7.595E-03 0.000E+00

     add environment contribution to local potential

     total cpu time spent up to now is      195.3 secs

     total energy              =    -240.55031479 Ry
     estimated scf accuracy    <       0.00011941 Ry
     electrostatic embedding   =      -0.00976502 Ry
     cavitation energy         =       0.01235683 Ry
     electrolyte free energy   =      -0.00072773 Ry
     correction to one-el term =       0.21656953 Ry

     iteration # 30     ecut=    80.00 Ry     beta= 0.20
     Davidson diagonalization with overlap

---- Real-time Memory Report at c_bands before calling an iterative solver
           561 MiB given to the printing process from OS
             0 MiB allocation reported by mallinfo(arena+hblkhd)
        631249 MiB available memory on the node where the printing process lives
------------------
     ethr =  2.49E-07,  avg # of iterations =  9.5

     negative rho (up, down):  6.747E-03 0.000E+00

     add environment contribution to local potential

     total cpu time spent up to now is      203.6 secs

     total energy              =    -240.55037888 Ry
     estimated scf accuracy    <       0.00005812 Ry
     electrostatic embedding   =      -0.00954824 Ry
     cavitation energy         =       0.01235683 Ry
     electrolyte free energy   =      -0.00074191 Ry
     correction to one-el term =       0.10064130 Ry

     iteration # 31     ecut=    80.00 Ry     beta= 0.20
     Davidson diagonalization with overlap

---- Real-time Memory Report at c_bands before calling an iterative solver
           562 MiB given to the printing process from OS
             0 MiB allocation reported by mallinfo(arena+hblkhd)
        631218 MiB available memory on the node where the printing process lives
------------------
     ethr =  1.21E-07,  avg # of iterations =  2.8

     negative rho (up, down):  6.092E-03 0.000E+00

     add environment contribution to local potential

     total cpu time spent up to now is      209.7 secs

     total energy              =    -240.55039268 Ry
     estimated scf accuracy    <       0.00003083 Ry
     electrostatic embedding   =      -0.00927298 Ry
     cavitation energy         =       0.01235683 Ry
     electrolyte free energy   =      -0.00071808 Ry
     correction to one-el term =       0.15811196 Ry

     iteration # 32     ecut=    80.00 Ry     beta= 0.20
     Davidson diagonalization with overlap

---- Real-time Memory Report at c_bands before calling an iterative solver
           563 MiB given to the printing process from OS
             0 MiB allocation reported by mallinfo(arena+hblkhd)
        631196 MiB available memory on the node where the printing process lives
------------------
     ethr =  6.42E-08,  avg # of iterations =  3.3

     negative rho (up, down):  5.190E-03 0.000E+00

     add environment contribution to local potential

     total cpu time spent up to now is      216.1 secs

     total energy              =    -240.55039382 Ry
     estimated scf accuracy    <       0.00002126 Ry
     electrostatic embedding   =      -0.00909877 Ry
     cavitation energy         =       0.01235683 Ry
     electrolyte free energy   =      -0.00072063 Ry
     correction to one-el term =       0.25113449 Ry

     iteration # 33     ecut=    80.00 Ry     beta= 0.20
     Davidson diagonalization with overlap

---- Real-time Memory Report at c_bands before calling an iterative solver
           564 MiB given to the printing process from OS
             0 MiB allocation reported by mallinfo(arena+hblkhd)
        631176 MiB available memory on the node where the printing process lives
------------------
     ethr =  4.43E-08,  avg # of iterations =  1.3

     negative rho (up, down):  7.043E-04 0.000E+00

     add environment contribution to local potential

     total cpu time spent up to now is      221.9 secs

     total energy              =    -240.55036844 Ry
     estimated scf accuracy    <       0.00001701 Ry
     electrostatic embedding   =      -0.00907586 Ry
     cavitation energy         =       0.01235683 Ry
     electrolyte free energy   =      -0.00072580 Ry
     correction to one-el term =       0.28126458 Ry

     iteration # 34     ecut=    80.00 Ry     beta= 0.20
     Davidson diagonalization with overlap

---- Real-time Memory Report at c_bands before calling an iterative solver
           565 MiB given to the printing process from OS
             0 MiB allocation reported by mallinfo(arena+hblkhd)
        631169 MiB available memory on the node where the printing process lives
------------------
     ethr =  3.54E-08,  avg # of iterations =  8.9

     negative rho (up, down):  2.164E-04 0.000E+00

     add environment contribution to local potential

     total cpu time spent up to now is      229.6 secs

     total energy              =    -240.55038503 Ry
     estimated scf accuracy    <       0.00000237 Ry
     electrostatic embedding   =      -0.00919608 Ry
     cavitation energy         =       0.01235683 Ry
     electrolyte free energy   =      -0.00072373 Ry
     correction to one-el term =       0.25276913 Ry

     iteration # 35     ecut=    80.00 Ry     beta= 0.20
     Davidson diagonalization with overlap

---- Real-time Memory Report at c_bands before calling an iterative solver
           567 MiB given to the printing process from OS
             0 MiB allocation reported by mallinfo(arena+hblkhd)
        631154 MiB available memory on the node where the printing process lives
------------------
     c_bands:  1 eigenvalues not converged
     c_bands:  1 eigenvalues not converged
     ethr =  4.94E-09,  avg # of iterations =  7.1

     negative rho (up, down):  2.817E-04 0.000E+00

     add environment contribution to local potential

     total cpu time spent up to now is      237.9 secs

     total energy              =    -240.55038576 Ry
     estimated scf accuracy    <       0.00000086 Ry
     electrostatic embedding   =      -0.00924765 Ry
     cavitation energy         =       0.01235683 Ry
     electrolyte free energy   =      -0.00072894 Ry
     correction to one-el term =       0.25311272 Ry

     iteration # 36     ecut=    80.00 Ry     beta= 0.20
     Davidson diagonalization with overlap

---- Real-time Memory Report at c_bands before calling an iterative solver
           568 MiB given to the printing process from OS
             0 MiB allocation reported by mallinfo(arena+hblkhd)
        631140 MiB available memory on the node where the printing process lives
------------------
     ethr =  1.80E-09,  avg # of iterations =  1.8

     negative rho (up, down):  2.127E-04 0.000E+00

     add environment contribution to local potential

     total cpu time spent up to now is      243.7 secs

     total energy              =    -240.55038791 Ry
     estimated scf accuracy    <       0.00000066 Ry
     electrostatic embedding   =      -0.00925720 Ry
     cavitation energy         =       0.01235683 Ry
     electrolyte free energy   =      -0.00072965 Ry
     correction to one-el term =       0.25220858 Ry

     iteration # 37     ecut=    80.00 Ry     beta= 0.20
     Davidson diagonalization with overlap

---- Real-time Memory Report at c_bands before calling an iterative solver
           569 MiB given to the printing process from OS
             0 MiB allocation reported by mallinfo(arena+hblkhd)
        631131 MiB available memory on the node where the printing process lives
------------------
     ethr =  1.37E-09,  avg # of iterations =  3.3

     negative rho (up, down):  1.991E-04 0.000E+00

     add environment contribution to local potential

     total cpu time spent up to now is      250.1 secs

     total energy              =    -240.55038855 Ry
     estimated scf accuracy    <       0.00000047 Ry
     electrostatic embedding   =      -0.00928416 Ry
     cavitation energy         =       0.01235683 Ry
     electrolyte free energy   =      -0.00073150 Ry
     correction to one-el term =       0.25065956 Ry

     iteration # 38     ecut=    80.00 Ry     beta= 0.20
     Davidson diagonalization with overlap

---- Real-time Memory Report at c_bands before calling an iterative solver
           570 MiB given to the printing process from OS
             0 MiB allocation reported by mallinfo(arena+hblkhd)
        631095 MiB available memory on the node where the printing process lives
------------------
     ethr =  9.75E-10,  avg # of iterations =  2.1

     negative rho (up, down):  4.088E-04 0.000E+00

     add environment contribution to local potential

     total cpu time spent up to now is      256.1 secs

     total energy              =    -240.55038828 Ry
     estimated scf accuracy    <       0.00000039 Ry
     electrostatic embedding   =      -0.00929184 Ry
     cavitation energy         =       0.01235683 Ry
     electrolyte free energy   =      -0.00073229 Ry
     correction to one-el term =       0.25383437 Ry

     iteration # 39     ecut=    80.00 Ry     beta= 0.20
     Davidson diagonalization with overlap

---- Real-time Memory Report at c_bands before calling an iterative solver
           571 MiB given to the printing process from OS
             0 MiB allocation reported by mallinfo(arena+hblkhd)
        631078 MiB available memory on the node where the printing process lives
------------------
     ethr =  8.14E-10,  avg # of iterations =  2.7

     negative rho (up, down):  4.386E-04 0.000E+00

     add environment contribution to local potential

     total cpu time spent up to now is      262.1 secs

     total energy              =    -240.55038824 Ry
     estimated scf accuracy    <       0.00000028 Ry
     electrostatic embedding   =      -0.00929470 Ry
     cavitation energy         =       0.01235683 Ry
     electrolyte free energy   =      -0.00073222 Ry
     correction to one-el term =       0.26234741 Ry

     iteration # 40     ecut=    80.00 Ry     beta= 0.20
     Davidson diagonalization with overlap

---- Real-time Memory Report at c_bands before calling an iterative solver
           572 MiB given to the printing process from OS
             0 MiB allocation reported by mallinfo(arena+hblkhd)
        631065 MiB available memory on the node where the printing process lives
------------------
     ethr =  5.74E-10,  avg # of iterations =  1.5

     negative rho (up, down):  4.397E-04 0.000E+00

     add environment contribution to local potential

     total cpu time spent up to now is      267.9 secs

     total energy              =    -240.55038829 Ry
     estimated scf accuracy    <       0.00000025 Ry
     electrostatic embedding   =      -0.00929335 Ry
     cavitation energy         =       0.01235683 Ry
     electrolyte free energy   =      -0.00073236 Ry
     correction to one-el term =       0.26381984 Ry

     iteration # 41     ecut=    80.00 Ry     beta= 0.20
     Davidson diagonalization with overlap

---- Real-time Memory Report at c_bands before calling an iterative solver
           573 MiB given to the printing process from OS
             0 MiB allocation reported by mallinfo(arena+hblkhd)
        631055 MiB available memory on the node where the printing process lives
------------------
     ethr =  5.13E-10,  avg # of iterations =  1.5

     negative rho (up, down):  2.768E-04 0.000E+00

     add environment contribution to local potential

     total cpu time spent up to now is      273.6 secs

     total energy              =    -240.55038961 Ry
     estimated scf accuracy    <       0.00000022 Ry
     electrostatic embedding   =      -0.00929211 Ry
     cavitation energy         =       0.01235683 Ry
     electrolyte free energy   =      -0.00073222 Ry
     correction to one-el term =       0.26414910 Ry

     iteration # 42     ecut=    80.00 Ry     beta= 0.20
     Davidson diagonalization with overlap

---- Real-time Memory Report at c_bands before calling an iterative solver
           575 MiB given to the printing process from OS
             0 MiB allocation reported by mallinfo(arena+hblkhd)
        631042 MiB available memory on the node where the printing process lives
------------------
     ethr =  4.66E-10,  avg # of iterations =  3.0

     negative rho (up, down):  2.556E-04 0.000E+00

     add environment contribution to local potential

     total cpu time spent up to now is      279.9 secs

     total energy              =    -240.55038987 Ry
     estimated scf accuracy    <       0.00000011 Ry
     electrostatic embedding   =      -0.00928005 Ry
     cavitation energy         =       0.01235683 Ry
     electrolyte free energy   =      -0.00073146 Ry
     correction to one-el term =       0.26208588 Ry

     iteration # 43     ecut=    80.00 Ry     beta= 0.20
     Davidson diagonalization with overlap

---- Real-time Memory Report at c_bands before calling an iterative solver
           576 MiB given to the printing process from OS
             0 MiB allocation reported by mallinfo(arena+hblkhd)
        631029 MiB available memory on the node where the printing process lives
------------------
     ethr =  2.34E-10,  avg # of iterations =  1.6

     negative rho (up, down):  2.509E-04 0.000E+00

     add environment contribution to local potential

     total cpu time spent up to now is      285.7 secs

     total energy              =    -240.55038972 Ry
     estimated scf accuracy    <       0.00000008 Ry
     electrostatic embedding   =      -0.00928134 Ry
     cavitation energy         =       0.01235683 Ry
     electrolyte free energy   =      -0.00073196 Ry
     correction to one-el term =       0.26254126 Ry

     iteration # 44     ecut=    80.00 Ry     beta= 0.20
     Davidson diagonalization with overlap

---- Real-time Memory Report at c_bands before calling an iterative solver
           577 MiB given to the printing process from OS
             0 MiB allocation reported by mallinfo(arena+hblkhd)
        631016 MiB available memory on the node where the printing process lives
------------------
     ethr =  1.72E-10,  avg # of iterations =  1.3

     negative rho (up, down):  2.452E-04 0.000E+00

     add environment contribution to local potential

     total cpu time spent up to now is      291.3 secs

     total energy              =    -240.55038963 Ry
     estimated scf accuracy    <       0.00000008 Ry
     electrostatic embedding   =      -0.00928029 Ry
     cavitation energy         =       0.01235683 Ry
     electrolyte free energy   =      -0.00073208 Ry
     correction to one-el term =       0.26327427 Ry

     iteration # 45     ecut=    80.00 Ry     beta= 0.20
     Davidson diagonalization with overlap

---- Real-time Memory Report at c_bands before calling an iterative solver
           578 MiB given to the printing process from OS
             0 MiB allocation reported by mallinfo(arena+hblkhd)
        631006 MiB available memory on the node where the printing process lives
------------------
     ethr =  1.64E-10,  avg # of iterations =  1.0

     negative rho (up, down):  2.068E-04 0.000E+00

     add environment contribution to local potential

     total cpu time spent up to now is      297.0 secs

     total energy              =    -240.55038885 Ry
     estimated scf accuracy    <       0.00000008 Ry
     electrostatic embedding   =      -0.00928013 Ry
     cavitation energy         =       0.01235683 Ry
     electrolyte free energy   =      -0.00073220 Ry
     correction to one-el term =       0.26343380 Ry

     iteration # 46     ecut=    80.00 Ry     beta= 0.20
     Davidson diagonalization with overlap

---- Real-time Memory Report at c_bands before calling an iterative solver
           579 MiB given to the printing process from OS
             0 MiB allocation reported by mallinfo(arena+hblkhd)
        630994 MiB available memory on the node where the printing process lives
------------------
     ethr =  1.57E-10,  avg # of iterations =  2.5

     negative rho (up, down):  2.216E-04 0.000E+00

     add environment contribution to local potential

     total cpu time spent up to now is      303.1 secs

     total energy              =    -240.55038933 Ry
     estimated scf accuracy    <       0.00000008 Ry
     electrostatic embedding   =      -0.00928068 Ry
     cavitation energy         =       0.01235683 Ry
     electrolyte free energy   =      -0.00073213 Ry
     correction to one-el term =       0.26204802 Ry

     iteration # 47     ecut=    80.00 Ry     beta= 0.20
     Davidson diagonalization with overlap

---- Real-time Memory Report at c_bands before calling an iterative solver
           580 MiB given to the printing process from OS
             0 MiB allocation reported by mallinfo(arena+hblkhd)
        630984 MiB available memory on the node where the printing process lives
------------------
     ethr =  1.57E-10,  avg # of iterations =  2.0

     negative rho (up, down):  2.170E-04 0.000E+00

     add environment contribution to local potential

     total cpu time spent up to now is      309.1 secs

     total energy              =    -240.55038939 Ry
     estimated scf accuracy    <       0.00000007 Ry
     electrostatic embedding   =      -0.00927962 Ry
     cavitation energy         =       0.01235683 Ry
     electrolyte free energy   =      -0.00073231 Ry
     correction to one-el term =       0.26302431 Ry

     iteration # 48     ecut=    80.00 Ry     beta= 0.20
     Davidson diagonalization with overlap

---- Real-time Memory Report at c_bands before calling an iterative solver
           581 MiB given to the printing process from OS
             0 MiB allocation reported by mallinfo(arena+hblkhd)
        630852 MiB available memory on the node where the printing process lives
------------------
     ethr =  1.43E-10,  avg # of iterations =  1.5

     negative rho (up, down):  2.321E-04 0.000E+00

     add environment contribution to local potential

     total cpu time spent up to now is      314.8 secs

     total energy              =    -240.55038925 Ry
     estimated scf accuracy    <       0.00000007 Ry
     electrostatic embedding   =      -0.00927879 Ry
     cavitation energy         =       0.01235683 Ry
     electrolyte free energy   =      -0.00073226 Ry
     correction to one-el term =       0.26245611 Ry

     iteration # 49     ecut=    80.00 Ry     beta= 0.20
     Davidson diagonalization with overlap

---- Real-time Memory Report at c_bands before calling an iterative solver
           582 MiB given to the printing process from OS
             0 MiB allocation reported by mallinfo(arena+hblkhd)
        630826 MiB available memory on the node where the printing process lives
------------------
     ethr =  1.41E-10,  avg # of iterations =  1.5

     negative rho (up, down):  2.165E-04 0.000E+00

     add environment contribution to local potential

     total cpu time spent up to now is      320.6 secs

     total energy              =    -240.55038920 Ry
     estimated scf accuracy    <       0.00000007 Ry
     electrostatic embedding   =      -0.00927903 Ry
     cavitation energy         =       0.01235683 Ry
     electrolyte free energy   =      -0.00073225 Ry
     correction to one-el term =       0.26377557 Ry

     iteration # 50     ecut=    80.00 Ry     beta= 0.20
     Davidson diagonalization with overlap

---- Real-time Memory Report at c_bands before calling an iterative solver
           583 MiB given to the printing process from OS
             0 MiB allocation reported by mallinfo(arena+hblkhd)
        630814 MiB available memory on the node where the printing process lives
------------------
     ethr =  1.41E-10,  avg # of iterations =  1.0

     negative rho (up, down):  2.200E-04 0.000E+00

     add environment contribution to local potential

     total cpu time spent up to now is      326.2 secs

     total energy              =    -240.55038937 Ry
     estimated scf accuracy    <       0.00000007 Ry
     electrostatic embedding   =      -0.00927949 Ry
     cavitation energy         =       0.01235683 Ry
     electrolyte free energy   =      -0.00073236 Ry
     correction to one-el term =       0.26307032 Ry

     iteration # 51     ecut=    80.00 Ry     beta= 0.20
     Davidson diagonalization with overlap

---- Real-time Memory Report at c_bands before calling an iterative solver
           584 MiB given to the printing process from OS
             0 MiB allocation reported by mallinfo(arena+hblkhd)
        630802 MiB available memory on the node where the printing process lives
------------------
     ethr =  1.41E-10,  avg # of iterations =  1.5

     negative rho (up, down):  2.199E-04 0.000E+00

     add environment contribution to local potential

     total cpu time spent up to now is      332.0 secs

     total energy              =    -240.55038933 Ry
     estimated scf accuracy    <       0.00000007 Ry
     electrostatic embedding   =      -0.00928045 Ry
     cavitation energy         =       0.01235683 Ry
     electrolyte free energy   =      -0.00073239 Ry
     correction to one-el term =       0.26274645 Ry

     iteration # 52     ecut=    80.00 Ry     beta= 0.20
     Davidson diagonalization with overlap

---- Real-time Memory Report at c_bands before calling an iterative solver
           585 MiB given to the printing process from OS
             0 MiB allocation reported by mallinfo(arena+hblkhd)
        630794 MiB available memory on the node where the printing process lives
------------------
     ethr =  1.41E-10,  avg # of iterations =  1.0

     negative rho (up, down):  2.202E-04 0.000E+00

     add environment contribution to local potential

     total cpu time spent up to now is      337.6 secs

     total energy              =    -240.55038938 Ry
     estimated scf accuracy    <       0.00000007 Ry
     electrostatic embedding   =      -0.00927998 Ry
     cavitation energy         =       0.01235683 Ry
     electrolyte free energy   =      -0.00073236 Ry
     correction to one-el term =       0.26286495 Ry

     iteration # 53     ecut=    80.00 Ry     beta= 0.20
     Davidson diagonalization with overlap

---- Real-time Memory Report at c_bands before calling an iterative solver
           587 MiB given to the printing process from OS
             0 MiB allocation reported by mallinfo(arena+hblkhd)
        630786 MiB available memory on the node where the printing process lives
------------------
     ethr =  1.41E-10,  avg # of iterations =  1.0

     negative rho (up, down):  2.179E-04 0.000E+00

     add environment contribution to local potential

     total cpu time spent up to now is      343.2 secs

     total energy              =    -240.55038947 Ry
     estimated scf accuracy    <       0.00000007 Ry
     electrostatic embedding   =      -0.00928066 Ry
     cavitation energy         =       0.01235683 Ry
     electrolyte free energy   =      -0.00073242 Ry
     correction to one-el term =       0.26261249 Ry

     iteration # 54     ecut=    80.00 Ry     beta= 0.20
     Davidson diagonalization with overlap

---- Real-time Memory Report at c_bands before calling an iterative solver
           588 MiB given to the printing process from OS
             0 MiB allocation reported by mallinfo(arena+hblkhd)
        630778 MiB available memory on the node where the printing process lives
------------------
     ethr =  1.41E-10,  avg # of iterations =  1.0

     negative rho (up, down):  2.173E-04 0.000E+00

     add environment contribution to local potential

     total cpu time spent up to now is      348.8 secs

     total energy              =    -240.55038949 Ry
     estimated scf accuracy    <       0.00000007 Ry
     electrostatic embedding   =      -0.00928113 Ry
     cavitation energy         =       0.01235683 Ry
     electrolyte free energy   =      -0.00073244 Ry
     correction to one-el term =       0.26225965 Ry

     iteration # 55     ecut=    80.00 Ry     beta= 0.20
     Davidson diagonalization with overlap

---- Real-time Memory Report at c_bands before calling an iterative solver
           589 MiB given to the printing process from OS
             0 MiB allocation reported by mallinfo(arena+hblkhd)
        630771 MiB available memory on the node where the printing process lives
------------------
     ethr =  1.41E-10,  avg # of iterations =  1.0

     negative rho (up, down):  2.122E-04 0.000E+00

     add environment contribution to local potential

     total cpu time spent up to now is      354.5 secs

     total energy              =    -240.55038942 Ry
     estimated scf accuracy    <       0.00000007 Ry
     electrostatic embedding   =      -0.00928125 Ry
     cavitation energy         =       0.01235683 Ry
     electrolyte free energy   =      -0.00073246 Ry
     correction to one-el term =       0.26218347 Ry

     iteration # 56     ecut=    80.00 Ry     beta= 0.20
     Davidson diagonalization with overlap

---- Real-time Memory Report at c_bands before calling an iterative solver
           590 MiB given to the printing process from OS
             0 MiB allocation reported by mallinfo(arena+hblkhd)
        630765 MiB available memory on the node where the printing process lives
------------------
     ethr =  1.41E-10,  avg # of iterations =  1.0

     negative rho (up, down):  2.235E-04 0.000E+00

     add environment contribution to local potential

     total cpu time spent up to now is      360.1 secs

     total energy              =    -240.55038960 Ry
     estimated scf accuracy    <       0.00000007 Ry
     electrostatic embedding   =      -0.00928173 Ry
     cavitation energy         =       0.01235683 Ry
     electrolyte free energy   =      -0.00073234 Ry
     correction to one-el term =       0.26156739 Ry

     iteration # 57     ecut=    80.00 Ry     beta= 0.20
     Davidson diagonalization with overlap

---- Real-time Memory Report at c_bands before calling an iterative solver
           591 MiB given to the printing process from OS
             0 MiB allocation reported by mallinfo(arena+hblkhd)
        630756 MiB available memory on the node where the printing process lives
------------------
     ethr =  1.41E-10,  avg # of iterations =  1.5

     negative rho (up, down):  2.230E-04 0.000E+00

     add environment contribution to local potential

     total cpu time spent up to now is      365.9 secs

     total energy              =    -240.55038964 Ry
     estimated scf accuracy    <       0.00000007 Ry
     electrostatic embedding   =      -0.00928099 Ry
     cavitation energy         =       0.01235683 Ry
     electrolyte free energy   =      -0.00073249 Ry
     correction to one-el term =       0.26268581 Ry

     iteration # 58     ecut=    80.00 Ry     beta= 0.20
     Davidson diagonalization with overlap

---- Real-time Memory Report at c_bands before calling an iterative solver
           592 MiB given to the printing process from OS
             0 MiB allocation reported by mallinfo(arena+hblkhd)
        630750 MiB available memory on the node where the printing process lives
------------------
     ethr =  1.40E-10,  avg # of iterations =  1.5

     negative rho (up, down):  2.139E-04 0.000E+00

     add environment contribution to local potential

     total cpu time spent up to now is      371.6 secs

     total energy              =    -240.55038953 Ry
     estimated scf accuracy    <       0.00000007 Ry
     electrostatic embedding   =      -0.00927972 Ry
     cavitation energy         =       0.01235683 Ry
     electrolyte free energy   =      -0.00073239 Ry
     correction to one-el term =       0.26225706 Ry

     iteration # 59     ecut=    80.00 Ry     beta= 0.20
     Davidson diagonalization with overlap

---- Real-time Memory Report at c_bands before calling an iterative solver
           593 MiB given to the printing process from OS
             0 MiB allocation reported by mallinfo(arena+hblkhd)
        630742 MiB available memory on the node where the printing process lives
------------------
     ethr =  1.40E-10,  avg # of iterations =  1.0

     negative rho (up, down):  2.130E-04 0.000E+00

     add environment contribution to local potential

     total cpu time spent up to now is      377.2 secs

     total energy              =    -240.55038950 Ry
     estimated scf accuracy    <       0.00000007 Ry
     electrostatic embedding   =      -0.00928043 Ry
     cavitation energy         =       0.01235683 Ry
     electrolyte free energy   =      -0.00073254 Ry
     correction to one-el term =       0.26216379 Ry

     iteration # 60     ecut=    80.00 Ry     beta= 0.20
     Davidson diagonalization with overlap

---- Real-time Memory Report at c_bands before calling an iterative solver
           594 MiB given to the printing process from OS
             0 MiB allocation reported by mallinfo(arena+hblkhd)
        630739 MiB available memory on the node where the printing process lives
------------------
     ethr =  1.40E-10,  avg # of iterations =  1.0

     negative rho (up, down):  2.258E-04 0.000E+00

     add environment contribution to local potential

     total cpu time spent up to now is      382.8 secs

     total energy              =    -240.55038971 Ry
     estimated scf accuracy    <       0.00000007 Ry
     electrostatic embedding   =      -0.00927989 Ry
     cavitation energy         =       0.01235683 Ry
     electrolyte free energy   =      -0.00073236 Ry
     correction to one-el term =       0.26195553 Ry

     iteration # 61     ecut=    80.00 Ry     beta= 0.20
     Davidson diagonalization with overlap

---- Real-time Memory Report at c_bands before calling an iterative solver
           595 MiB given to the printing process from OS
             0 MiB allocation reported by mallinfo(arena+hblkhd)
        630733 MiB available memory on the node where the printing process lives
------------------
     ethr =  1.40E-10,  avg # of iterations =  1.5

     negative rho (up, down):  2.233E-04 0.000E+00

     add environment contribution to local potential

     total cpu time spent up to now is      388.6 secs

     total energy              =    -240.55038957 Ry
     estimated scf accuracy    <       0.00000007 Ry
     electrostatic embedding   =      -0.00928151 Ry
     cavitation energy         =       0.01235683 Ry
     electrolyte free energy   =      -0.00073252 Ry
     correction to one-el term =       0.26212242 Ry

     iteration # 62     ecut=    80.00 Ry     beta= 0.20
     Davidson diagonalization with overlap

---- Real-time Memory Report at c_bands before calling an iterative solver
           596 MiB given to the printing process from OS
             0 MiB allocation reported by mallinfo(arena+hblkhd)
        630725 MiB available memory on the node where the printing process lives
------------------
     ethr =  1.40E-10,  avg # of iterations =  1.5

     negative rho (up, down):  2.304E-04 0.000E+00

     add environment contribution to local potential

     total cpu time spent up to now is      394.3 secs

     total energy              =    -240.55038951 Ry
     estimated scf accuracy    <       0.00000007 Ry
     electrostatic embedding   =      -0.00928056 Ry
     cavitation energy         =       0.01235683 Ry
     electrolyte free energy   =      -0.00073239 Ry
[...]
     0.9242   0.6625   0.0000   0.0000   0.0000   0.0000   0.0000   0.0000
     0.0000   0.0000   0.0000   0.0000

          k = 0.4545 0.6428 0.0000 (128432 PWs)   bands (ev):

   -49.7266 -49.7266 -49.7266 -49.7265 -49.7263 -49.7262 -49.7240 -49.7239
   -49.2883 -49.2883 -49.2853 -49.2825 -49.2817 -49.2814 -49.2799 -49.2799
    -5.0254  -5.0254  -4.4040  -4.4040  -4.2510  -3.6653  -3.3664  -3.2367
    -3.2367  -2.8068  -2.5545  -1.8437  -1.8437  -1.7511  -1.1720  -0.9593
    -0.9593  -0.4708   0.0428   0.1808

     occupation numbers 
     1.0000   1.0000   1.0000   1.0000   1.0000   1.0000   1.0000   1.0000
     1.0000   1.0000   1.0000   1.0000   1.0000   1.0000   1.0000   1.0000
     1.0000   1.0000   1.0000   1.0000   1.0000   1.0000   1.0000   1.0007
     1.0007   0.4097   0.0008   0.0000   0.0000   0.0000   0.0000   0.0000
     0.0000   0.0000   0.0000   0.0000

          k = 0.4545-0.3214 0.0000 (128382 PWs)   bands (ev):

   -49.7278 -49.7277 -49.7255 -49.7254 -49.7251 -49.7251 -49.7251 -49.7250
   -49.2897 -49.2871 -49.2835 -49.2835 -49.2819 -49.2819 -49.2810 -49.2789
    -5.2493  -4.8217  -4.6299  -4.1967  -3.8210  -3.8210  -3.4704  -3.2482
    -3.2481  -3.0187  -2.1648  -2.1647  -2.0987  -1.6051  -1.2555  -0.8397
    -0.8396  -0.6896   0.5946   0.6721

     occupation numbers 
     1.0000   1.0000   1.0000   1.0000   1.0000   1.0000   1.0000   1.0000
     1.0000   1.0000   1.0000   1.0000   1.0000   1.0000   1.0000   1.0000
     1.0000   1.0000   1.0000   1.0000   1.0000   1.0000   1.0000   1.0004
     1.0004   1.0783   0.0000   0.0000   0.0000   0.0000   0.0000   0.0000
     0.0000   0.0000   0.0000   0.0000

          k = 0.4545-0.2250 0.0000 (128394 PWs)   bands (ev):

   -49.7288 -49.7288 -49.7262 -49.7262 -49.7243 -49.7243 -49.7240 -49.7240
   -49.2908 -49.2858 -49.2852 -49.2825 -49.2820 -49.2818 -49.2815 -49.2779
    -5.4154  -4.7987  -4.5610  -4.2149  -3.9336  -3.6477  -3.6340  -3.3335
    -2.7857  -2.7469  -2.5373  -2.2938  -1.7798  -1.4747  -1.3118  -1.1936
    -0.7988  -0.3436   0.0929   0.3737

     occupation numbers 
     1.0000   1.0000   1.0000   1.0000   1.0000   1.0000   1.0000   1.0000
     1.0000   1.0000   1.0000   1.0000   1.0000   1.0000   1.0000   1.0000
     1.0000   1.0000   1.0000   1.0000   1.0000   1.0000   1.0000   1.0000
     0.3089   0.1645   0.0004   0.0000   0.0000   0.0000   0.0000   0.0000
     0.0000   0.0000   0.0000   0.0000

          k = 0.4545-0.1286 0.0000 (128342 PWs)   bands (ev):

   -49.7297 -49.7297 -49.7273 -49.7272 -49.7233 -49.7233 -49.7231 -49.7231
   -49.2917 -49.2868 -49.2845 -49.2830 -49.2829 -49.2812 -49.2802 -49.2771
    -5.5235  -4.9098  -4.5472  -4.2435  -3.9606  -3.7667  -3.6159  -2.8557
    -2.7934  -2.4257  -2.4251  -2.2994  -1.6165  -1.5267  -1.5026  -1.2698
    -0.9765  -0.3330   0.0774   0.3774

     occupation numbers 
     1.0000   1.0000   1.0000   1.0000   1.0000   1.0000   1.0000   1.0000
     1.0000   1.0000   1.0000   1.0000   1.0000   1.0000   1.0000   1.0000
     1.0000   1.0000   1.0000   1.0000   1.0000   1.0000   1.0000   0.6744
     0.3440   0.0000   0.0000   0.0000   0.0000   0.0000   0.0000   0.0000
     0.0000   0.0000   0.0000   0.0000

          k = 0.4545-0.0321 0.0000 (128335 PWs)   bands (ev):

   -49.7303 -49.7303 -49.7282 -49.7281 -49.7225 -49.7225 -49.7224 -49.7224
   -49.2922 -49.2882 -49.2836 -49.2834 -49.2833 -49.2812 -49.2790 -49.2765
    -5.5731  -4.9625  -4.8176  -4.2265  -3.8696  -3.8260  -3.2454  -3.1153
    -2.4907  -2.2126  -2.0637  -1.9113  -1.8124  -1.7589  -1.6807  -1.6216
    -0.6823  -0.6342   0.3757   0.5794

     occupation numbers 
     1.0000   1.0000   1.0000   1.0000   1.0000   1.0000   1.0000   1.0000
     1.0000   1.0000   1.0000   1.0000   1.0000   1.0000   1.0000   1.0000
     1.0000   1.0000   1.0000   1.0000   1.0000   1.0000   1.0005   1.0205
     0.0001   0.0000   0.0000   0.0000   0.0000   0.0000   0.0000   0.0000
     0.0000   0.0000   0.0000   0.0000

          k = 0.4545 0.0643 0.0000 (128255 PWs)   bands (ev):

   -49.7306 -49.7306 -49.7288 -49.7288 -49.7222 -49.7222 -49.7217 -49.7217
   -49.2923 -49.2893 -49.2841 -49.2836 -49.2823 -49.2815 -49.2781 -49.2762
    -5.5641  -5.0266  -4.9564  -4.4313  -3.8246  -3.4399  -3.3144  -2.8253
    -2.4898  -2.4869  -2.0223  -1.9583  -1.6798  -1.6672  -1.6014  -1.5488
    -0.9544  -0.4023   0.3682   0.5919

     occupation numbers 
     1.0000   1.0000   1.0000   1.0000   1.0000   1.0000   1.0000   1.0000
     1.0000   1.0000   1.0000   1.0000   1.0000   1.0000   1.0000   1.0000
     1.0000   1.0000   1.0000   1.0000   1.0000   1.0000   1.0000   0.5070
     0.0001   0.0000   0.0000   0.0000   0.0000   0.0000   0.0000   0.0000
     0.0000   0.0000   0.0000   0.0000

     the Fermi energy is    -2.8050 ev

!    total energy              =    -240.55038893 Ry
     total all-electron energy =      -240.550519 Ry
     estimated scf accuracy    <          6.8E-15 Ry
     smearing contrib. (-TS)   =      -0.00028616 Ry
     internal energy E=F+TS    =    -240.55010277 Ry

     The total energy is F=E-TS. E is the sum of the following terms:
     one-electron contribution =   -2490.88753476 Ry
     hartree contribution      =    1219.29729605 Ry
     xc contribution           =     -57.35550485 Ry
     ewald contribution        =    1086.72460558 Ry
     one-center paw contrib.   =       1.40962981 Ry
      -> PAW hartree energy AE =       7.44316464 Ry
      -> PAW hartree energy PS =      -7.22093706 Ry
      -> PAW xc energy AE      =      -3.48943932 Ry
      -> PAW xc energy PS      =       3.35525188 Ry
      -> total E_H with PAW    =    1219.51952363 Ry
      -> total E_XC with PAW   =     -57.48969229 Ry
     electrostatic embedding   =      -0.00929745 Ry
     cavitation energy         =       0.01235683 Ry
     electrolyte free energy   =      -0.00073324 Ry
     correction to one-el term =       0.25907926 Ry

     WARNING: you are using the parabolic pbc correction;
              the potential shift above must be added to 
              band and Fermi energies.

     convergence has been achieved in 228 iterations
     The dielectric solvent contribution to forces
     atom    1 type  1   force =     0.00000014   -0.00000011    0.00643281
     atom    2 type  1   force =    -0.00000000   -0.00000000    0.00182577
     atom    3 type  1   force =    -0.00000004    0.00000002   -0.00183897
     atom    4 type  1   force =    -0.00000000    0.00000002   -0.00644685
     atom    5 type  1   force =     0.00000015    0.00000023    0.00643335
     atom    6 type  1   force =     0.00000000   -0.00000000    0.00182567
     atom    7 type  1   force =    -0.00000000   -0.00000001   -0.00183902
     atom    8 type  1   force =    -0.00000001   -0.00000002   -0.00644721
     atom    9 type  1   force =    -0.00000016   -0.00000023    0.00643336
     atom   10 type  1   force =     0.00000000   -0.00000000    0.00182574
     atom   11 type  1   force =     0.00000000    0.00000001   -0.00183902
     atom   12 type  1   force =    -0.00000000    0.00000002   -0.00644574
     atom   13 type  1   force =    -0.00000014    0.00000011    0.00643280
     atom   14 type  1   force =     0.00000000    0.00000000    0.00182577
     atom   15 type  1   force =     0.00000004   -0.00000002   -0.00183897
     atom   16 type  1   force =    -0.00000001   -0.00000002   -0.00644685
 

     Forces acting on atoms (cartesian axes, Ry/au):

     atom    1 type  1   force =     0.00000018   -0.00000006   -0.00000075
     atom    2 type  1   force =     0.00000000    0.00000000    0.00000093
     atom    3 type  1   force =    -0.00000025    0.00000004    0.00000054
     atom    4 type  1   force =     0.00000000    0.00000000   -0.00000058
     atom    5 type  1   force =    -0.00000019   -0.00000028   -0.00000097
     atom    6 type  1   force =     0.00000000    0.00000000    0.00000171
     atom    7 type  1   force =     0.00000039    0.00000028    0.00000068
     atom    8 type  1   force =     0.00000000    0.00000000   -0.00000044
     atom    9 type  1   force =     0.00000019    0.00000028   -0.00000097
     atom   10 type  1   force =     0.00000000    0.00000000    0.00000016
     atom   11 type  1   force =    -0.00000039   -0.00000028    0.00000068
     atom   12 type  1   force =     0.00000000    0.00000000   -0.00000095
     atom   13 type  1   force =    -0.00000018    0.00000006   -0.00000075
     atom   14 type  1   force =     0.00000000    0.00000000    0.00000106
     atom   15 type  1   force =     0.00000025   -0.00000004    0.00000054
     atom   16 type  1   force =     0.00000000    0.00000000   -0.00000089
     The non-local contrib.  to forces
     atom    1 type  1   force =    -0.00000081    0.00000072   -0.05411761
     atom    2 type  1   force =     0.00000000    0.00000000    0.00007541
     atom    3 type  1   force =     0.00000074   -0.00000051   -0.00007312
     atom    4 type  1   force =     0.00000000    0.00000000    0.05411003
     atom    5 type  1   force =    -0.00000004   -0.00000044   -0.05411246
     atom    6 type  1   force =     0.00000000    0.00000000    0.00007461
     atom    7 type  1   force =    -0.00000040    0.00000009   -0.00007317
     atom    8 type  1   force =     0.00000000    0.00000000    0.05411174
     atom    9 type  1   force =     0.00000004    0.00000044   -0.05411246
     atom   10 type  1   force =     0.00000000    0.00000000    0.00007480
     atom   11 type  1   force =     0.00000040   -0.00000009   -0.00007317
     atom   12 type  1   force =     0.00000000    0.00000000    0.05411600
     atom   13 type  1   force =     0.00000081   -0.00000072   -0.05411761
     atom   14 type  1   force =     0.00000000    0.00000000    0.00007503
     atom   15 type  1   force =    -0.00000074    0.00000051   -0.00007312
     atom   16 type  1   force =     0.00000000    0.00000000    0.05411019
     The ionic contribution  to forces
     atom    1 type  1   force =    -0.00000020    0.00000222   -9.03762424
     atom    2 type  1   force =    -0.00000006   -0.00000007   -3.02618731
     atom    3 type  1   force =    -0.00000114   -0.00000175    3.02605424
     atom    4 type  1   force =    -0.00000005   -0.00000011    9.03747372
     atom    5 type  1   force =    -0.00000454   -0.00000751   -9.03745842
     atom    6 type  1   force =     0.00000007    0.00000008   -3.02599425
     atom    7 type  1   force =     0.00000609    0.00000682    3.02617862
     atom    8 type  1   force =     0.00000004    0.00000012    9.03751756
     atom    9 type  1   force =     0.00000451    0.00000750   -9.03745822
     atom   10 type  1   force =    -0.00000002   -0.00000005   -3.02606410
     atom   11 type  1   force =    -0.00000614   -0.00000685    3.02617871
     atom   12 type  1   force =    -0.00000001   -0.00000011    9.03765734
     atom   13 type  1   force =     0.00000017   -0.00000224   -9.03762441
     atom   14 type  1   force =     0.00000011    0.00000010   -3.02617456
     atom   15 type  1   force =     0.00000109    0.00000172    3.02605413
     atom   16 type  1   force =     0.00000007    0.00000014    9.03747118
     The local contribution  to forces
     atom    1 type  1   force =     0.00005666   -0.00001343    9.08530750
     atom    2 type  1   force =     0.00005792   -0.00002187    3.02428706
     atom    3 type  1   force =     0.00005606   -0.00000743   -3.02414248
     atom    4 type  1   force =     0.00005736   -0.00002303   -9.08513749
     atom    5 type  1   force =     0.00005985   -0.00000310    9.08513829
     atom    6 type  1   force =     0.00010287   -0.00001645    3.02409569
     atom    7 type  1   force =     0.00005056   -0.00001632   -3.02426520
     atom    8 type  1   force =     0.00010410   -0.00001410   -9.08518253
     atom    9 type  1   force =     0.00005140   -0.00001797    9.08513466
     atom   10 type  1   force =     0.00005868   -0.00002129    3.02416373
     atom   11 type  1   force =     0.00006121   -0.00000304   -3.02426641
     atom   12 type  1   force =     0.00005813   -0.00002245   -9.08532855
     atom   13 type  1   force =     0.00005459   -0.00000764    9.08530931
     atom   14 type  1   force =     0.00010363   -0.00001587    3.02427483
     atom   15 type  1   force =     0.00005571   -0.00001193   -3.02414066
     atom   16 type  1   force =     0.00010486   -0.00001293   -9.08513543
     The core correction contribution to forces
     atom    1 type  1   force =     0.00000000    0.00000000    0.00000000
     atom    2 type  1   force =     0.00000000    0.00000000    0.00000000
     atom    3 type  1   force =     0.00000000    0.00000000    0.00000000
     atom    4 type  1   force =     0.00000000    0.00000000    0.00000000
     atom    5 type  1   force =     0.00000000    0.00000000    0.00000000
     atom    6 type  1   force =     0.00000000    0.00000000    0.00000000
     atom    7 type  1   force =     0.00000000    0.00000000    0.00000000
     atom    8 type  1   force =     0.00000000    0.00000000    0.00000000
     atom    9 type  1   force =     0.00000000    0.00000000    0.00000000
     atom   10 type  1   force =     0.00000000    0.00000000    0.00000000
     atom   11 type  1   force =     0.00000000    0.00000000    0.00000000
     atom   12 type  1   force =     0.00000000    0.00000000    0.00000000
     atom   13 type  1   force =     0.00000000    0.00000000    0.00000000
     atom   14 type  1   force =     0.00000000    0.00000000    0.00000000
     atom   15 type  1   force =     0.00000000    0.00000000    0.00000000
     atom   16 type  1   force =     0.00000000    0.00000000    0.00000000
     The Hubbard contrib.    to forces
     atom    1 type  1   force =     0.00000000    0.00000000    0.00000000
     atom    2 type  1   force =     0.00000000    0.00000000    0.00000000
     atom    3 type  1   force =     0.00000000    0.00000000    0.00000000
     atom    4 type  1   force =     0.00000000    0.00000000    0.00000000
     atom    5 type  1   force =     0.00000000    0.00000000    0.00000000
     atom    6 type  1   force =     0.00000000    0.00000000    0.00000000
     atom    7 type  1   force =     0.00000000    0.00000000    0.00000000
     atom    8 type  1   force =     0.00000000    0.00000000    0.00000000
     atom    9 type  1   force =     0.00000000    0.00000000    0.00000000
     atom   10 type  1   force =     0.00000000    0.00000000    0.00000000
     atom   11 type  1   force =     0.00000000    0.00000000    0.00000000
     atom   12 type  1   force =     0.00000000    0.00000000    0.00000000
     atom   13 type  1   force =     0.00000000    0.00000000    0.00000000
     atom   14 type  1   force =     0.00000000    0.00000000    0.00000000
     atom   15 type  1   force =     0.00000000    0.00000000    0.00000000
     atom   16 type  1   force =     0.00000000    0.00000000    0.00000000
     The SCF correction term to forces
     atom    1 type  1   force =     0.00000000    0.00000000   -0.00000002
     atom    2 type  1   force =     0.00000000    0.00000000   -0.00000001
     atom    3 type  1   force =    -0.00000001    0.00000001    0.00000002
     atom    4 type  1   force =     0.00000000    0.00000000    0.00000001
     atom    5 type  1   force =    -0.00000000    0.00000000   -0.00000002
     atom    6 type  1   force =     0.00000000   -0.00000000   -0.00000001
     atom    7 type  1   force =     0.00000000    0.00000000    0.00000000
     atom    8 type  1   force =     0.00000000   -0.00000000    0.00000001
     atom    9 type  1   force =     0.00000000   -0.00000000   -0.00000002
     atom   10 type  1   force =     0.00000000    0.00000000   -0.00000001
     atom   11 type  1   force =    -0.00000000   -0.00000000    0.00000000
     atom   12 type  1   force =     0.00000000    0.00000000    0.00000001
     atom   13 type  1   force =    -0.00000000   -0.00000000   -0.00000002
     atom   14 type  1   force =     0.00000000    0.00000000   -0.00000001
     atom   15 type  1   force =     0.00000001   -0.00000001    0.00000002
     atom   16 type  1   force =     0.00000000   -0.00000000    0.00000001

     Total force =     0.000004     Total SCF correction =     0.000000
     Message from routine punch:
     Nothing written, as per user request (disk_io='none')
 
     init_run     :      3.96s CPU      4.26s WALL (       1 calls)
     electrons    :   1291.94s CPU   1342.83s WALL (       1 calls)
     forces       :      1.63s CPU      1.66s WALL (       1 calls)

     Called by init_run:
     wfcinit      :      1.59s CPU      1.70s WALL (       1 calls)
     wfcinit:wfcr :      1.54s CPU      1.64s WALL (      61 calls)
     potinit      :      0.07s CPU      0.09s WALL (       1 calls)
     hinit0       :      0.48s CPU      0.58s WALL (       1 calls)

     Called by electrons:
     c_bands      :    826.39s CPU    861.63s WALL (     228 calls)
     sum_band     :    164.29s CPU    175.10s WALL (     228 calls)
     v_of_rho     :      6.33s CPU      6.70s WALL (     229 calls)
     v_h          :      0.60s CPU      0.61s WALL (     229 calls)
     v_xc         :      5.73s CPU      6.09s WALL (     229 calls)
     newd         :      4.09s CPU      5.66s WALL (     229 calls)
     PAW_pot      :      2.41s CPU      2.59s WALL (     229 calls)
     mix_rho      :     20.07s CPU     20.45s WALL (     228 calls)

     Called by c_bands:
     init_us_2    :     10.21s CPU     10.91s WALL (   27938 calls)
     cegterg      :    803.01s CPU    837.10s WALL (   13908 calls)

     Called by sum_band:
     sum_band:wei :      0.43s CPU      0.53s WALL (     228 calls)
     sum_band:loo :    157.25s CPU    165.82s WALL (     228 calls)
     sum_band:buf :      1.16s CPU      1.20s WALL (   13908 calls)
     sum_band:ini :      2.92s CPU      3.00s WALL (   13908 calls)
     sum_band:cal :     15.79s CPU     16.19s WALL (   13908 calls)
     sum_band:bec :      0.67s CPU      0.69s WALL (   13908 calls)
     addusdens    :      4.49s CPU      6.58s WALL (     228 calls)
                                        0.00s GPU  (     228 calls)
     addusd:skk   :      0.46s CPU      0.88s WALL (     228 calls)
                                        0.00s GPU  (     228 calls)

     Called by *egterg:
     cdiaghg      :     49.59s CPU     50.34s WALL (   41736 calls)
     cegterg:over :     28.49s CPU     28.86s WALL (   27828 calls)
     cegterg:upda :      8.80s CPU      9.05s WALL (   27828 calls)
     cegterg:last :     17.38s CPU     17.63s WALL (   20952 calls)
     h_psi        :    649.50s CPU    681.22s WALL (   41797 calls)
     s_psi        :     24.96s CPU     25.53s WALL (   41797 calls)
     g_psi        :      0.49s CPU      0.52s WALL (   27828 calls)

     Called by h_psi:
     h_psi:calbec :     44.20s CPU     45.60s WALL (   41797 calls)
     vloc_psi     :    565.09s CPU    594.88s WALL (   41797 calls)
                                        0.00s GPU  (   41797 calls)
     add_vuspsi   :     36.82s CPU     37.25s WALL (   41797 calls)

     General routines
     calbec       :     59.77s CPU     61.58s WALL (   55949 calls)
     fft          :      5.71s CPU      5.79s WALL (    2977 calls)
     ffts         :     13.69s CPU     13.96s WALL (   28376 calls)
     fftw         :    662.71s CPU    697.84s WALL ( 2609292 calls)
     interpolate  :      0.61s CPU      0.62s WALL (     229 calls)
 
     Parallel routines

     PAW routines
     PAW_pot      :      2.41s CPU      2.59s WALL (     229 calls)
     PAW_symme    :      0.03s CPU      0.03s WALL (     457 calls)
 
     Environ routines
 
     PWSCF        :  21m37.98s CPU  22m30.53s WALL

 
   This run was terminated on:  14: 0:25  25Dec2024            

=------------------------------------------------------------------------------=
   JOB DONE.
=------------------------------------------------------------------------------=
