76
Lattice="9.71608884074566 0.0 0.0 2.42902221018641 10.58786491198156 0.0 0.0 0.0 54.790794574900005" Properties=species:S:1:pos:R:3:initial_magmoms:R:1:forces:R:3 energy=-14958.86042095619 free_energy=-14958.86042095619 pbc="T T T"
Li       0.00879512      -0.62076723      34.79089179       0.00000000       0.00015864      -0.00012161       0.00011673
Li       2.41985554       7.30948134      20.39588093       0.00000000      -0.00013601       0.00000154      -0.00000540
Li       2.41986832       3.73522710      21.50575834       0.00000000      -0.00004628       0.00007610       0.00013627
Li       2.41966313       0.60542819      22.38039093       0.00000000      -0.00000823       0.00006942       0.00005425
Li       4.84877245       7.89888454      22.63503142       0.00000000      -0.00006788       0.00003728       0.00004834
Li       4.84878967       4.27179368      23.58696946       0.00000000      -0.00008485       0.00006068       0.00002520
Li       4.84874132       1.07313110      24.40147299       0.00000000      -0.00011776       0.00014295       0.00024554
Li       2.42077778       8.39566881      25.08088650       0.00000000      -0.00011930       0.00007533      -0.00003420
Li       2.42344559       5.04097279      26.01124904       0.00000000      -0.00006865       0.00004242      -0.00007482
Li       2.42632089       1.58488447      26.94764614       0.00000000      -0.00002777      -0.00009487       0.00005682
Li       4.85938920       8.90095565      27.61657561       0.00000000       0.00001363       0.00012624      -0.00005682
Li       4.86231101       5.62952246      28.31203860       0.00000000       0.00004088      -0.00005322      -0.00007765
Li       4.86503934       2.23229273      29.34134311       0.00000000       0.00006222      -0.00004319      -0.00012444
Li       2.43799701       9.53718762      29.86718362       0.00000000       0.00004191       0.00002623      -0.00001028
Li       2.43822556       6.17484422      30.51047166       0.00000000       0.00004165       0.00003882      -0.00003728
Li       2.43832528       2.78962081      31.63298116       0.00000000       0.00008870      -0.00015067       0.00006942
Li       4.86730411       9.98540071      32.48490215       0.00000000       0.00010079      -0.00012367      -0.00001800
Li       4.86731901       6.93602261      33.32448963       0.00000000       0.00010002      -0.00012187      -0.00015221
Li       4.86726891       3.42874177      33.87041182       0.00000000       0.00010670      -0.00007353      -0.00012804
Li       2.41976004       9.51855982      22.30588565       0.00000000      -0.00010027       0.00012161       0.00001825
Li       2.41971732       6.12647017      23.15781403       0.00000000      -0.00008845       0.00015195      -0.00007071
Li       2.41981569       2.74125350      24.28032012       0.00000000      -0.00004217      -0.00003908       0.00003805
Li       4.84907242       9.96677175      24.92361146       0.00000000      -0.00004242      -0.00002751       0.00001028
Li       4.85105326       6.68380128      25.44945341       0.00000000      -0.00006351       0.00004422       0.00012393
Li       4.85378031       3.28656914      26.47875441       0.00000000      -0.00003985       0.00005348       0.00007919
Li       4.85670468       0.01513938      27.17421867       0.00000000      -0.00001491      -0.00012547       0.00005836
Li       2.43172855       7.33121120      27.84314085       0.00000000       0.00002880       0.00009462      -0.00005631
Li       2.43460290       3.87511827      28.77954502       0.00000000       0.00006762      -0.00004191       0.00007533
Li       2.43727079       0.52042641      29.70990109       0.00000000       0.00011956      -0.00007456       0.00003291
Li       4.86734661       7.84296296      30.38931934       0.00000000       0.00011724      -0.00014218      -0.00024580
Li       4.86729912       4.64430455      31.20382747       0.00000000       0.00008382      -0.00006094      -0.00002545
Li       4.86731321       1.01720743      32.15576470       0.00000000       0.00006891      -0.00003831      -0.00004808
Li       2.43837876       8.31066545      32.41040537       0.00000000       0.00000951      -0.00006968      -0.00005785
Li       2.43817341       5.18086722      33.28503362       0.00000000       0.00004705      -0.00007610      -0.00013601
Li       2.43818319       1.60660923      34.39491050       0.00000000       0.00013704      -0.00000206       0.00000720
Li       4.84924492       9.53686195      19.99990038       0.00000000      -0.00015838       0.00012238      -0.00011390
Li       4.84881552       5.48734958      20.92038606       0.00000000      -0.00010619       0.00007379       0.00012573
Li       4.84876989       1.98007149      21.46629482       0.00000000      -0.00010027       0.00012187       0.00015272
Li       4.86683816      -0.62076590      34.79089284       0.00000000       0.00015889      -0.00012213       0.00011596
Li       7.27790044       7.30948094      20.39588128       0.00000000      -0.00013627       0.00000103      -0.00000591
Li       7.27791309       3.73522698      21.50575762       0.00000000      -0.00004679       0.00007636       0.00013627
Li       7.27770786       0.60542828      22.38039031       0.00000000      -0.00000823       0.00006916       0.00005322
Li       9.70681814       7.89888477      22.63503199       0.00000000      -0.00006916       0.00003780       0.00004757
Li       9.70683369       4.27179284      23.58697016       0.00000000      -0.00008485       0.00006171       0.00002494
Li       9.70678556       1.07313094      24.40147440       0.00000000      -0.00011673       0.00014295       0.00024400
Li       7.27882320       8.39566814      25.08088769       0.00000000      -0.00012007       0.00007533      -0.00003497
Li       7.28148971       5.04097314      26.01124861       0.00000000      -0.00006813       0.00004165      -0.00007508
Li       7.28436587       1.58488560      26.94764652       0.00000000      -0.00002880      -0.00009590       0.00005605
Li       9.71743281       8.90095622      27.61657579       0.00000000       0.00001414       0.00012598      -0.00005785
Li       9.72035664       5.62952240      28.31203762       0.00000000       0.00004011      -0.00005322      -0.00007662
Li       9.72308286       2.23229274      29.34134378       0.00000000       0.00006299      -0.00004319      -0.00012547
Li       7.29604036       9.53718767      29.86718407       0.00000000       0.00004268       0.00002648      -0.00001080
Li       7.29627029       6.17484397      30.51047308       0.00000000       0.00004191       0.00003857      -0.00003754
Li       7.29636945       2.78962139      31.63298148       0.00000000       0.00008896      -0.00015118       0.00006916
Li       9.72534931       9.98540026      32.48490225       0.00000000       0.00009950      -0.00012316      -0.00001800
Li       9.72536225       6.93602214      33.32448689       0.00000000       0.00010130      -0.00012264      -0.00015144
Li       9.72531370       3.42874272      33.87041175       0.00000000       0.00010670      -0.00007456      -0.00012881
Li       7.27780490       9.51855903      22.30588570       0.00000000      -0.00010053       0.00012136       0.00001903
Li       7.27776205       6.12647012      23.15781365       0.00000000      -0.00008870       0.00015247      -0.00007045
Li       7.27786022       2.74125295      24.28031952       0.00000000      -0.00004242      -0.00003831       0.00003857
Li       9.70711676       9.96677291      24.92361122       0.00000000      -0.00004294      -0.00002803       0.00001080
Li       9.70909859       6.68380106      25.44945368       0.00000000      -0.00006402       0.00004422       0.00012341
Li       9.71182493       3.28656860      26.47875516       0.00000000      -0.00003985       0.00005425       0.00007893
Li       9.71474885       0.01513969      27.17421842       0.00000000      -0.00001491      -0.00012676       0.00005939
Li       7.28977302       7.33120982      27.84314154       0.00000000       0.00002905       0.00009513      -0.00005554
Li       7.29264700       3.87511863      28.77954448       0.00000000       0.00006813      -0.00004062       0.00007610
Li       7.29531528       0.52042606      29.70990074       0.00000000       0.00011956      -0.00007456       0.00003394
Li       9.72539078       7.84296349      30.38931860       0.00000000       0.00011750      -0.00014244      -0.00024631
Li       9.72534358       4.64430402      31.20382666       0.00000000       0.00008408      -0.00006094      -0.00002545
Li       9.72535759       1.01720650      32.15576382       0.00000000       0.00006865      -0.00003651      -0.00004705
Li       7.29642338       8.31066621      32.41040529       0.00000000       0.00000874      -0.00006891      -0.00005656
Li       7.29621792       5.18086723      33.28503535       0.00000000       0.00004654      -0.00007662      -0.00013653
Li       7.29622818       1.60660919      34.39491059       0.00000000       0.00013730      -0.00000231       0.00000720
Li       9.70728887       9.53686152      19.99989861       0.00000000      -0.00015864       0.00012238      -0.00011364
Li       9.70686103       5.48734988      20.92038682       0.00000000      -0.00010696       0.00007353       0.00012598
Li       9.70681470       1.98007224      21.46629539       0.00000000      -0.00010027       0.00012136       0.00015298
