
     Program PWSCF v.7.4 starts on  7Jan2025 at  0:31:35 

     This program is part of the open-source Quantum ESPRESSO suite
     for quantum simulation of materials; please cite
         "P. Giannozzi et al., J. Phys.:Condens. Matter 21 395502 (2009);
         "P. Giannozzi et al., J. Phys.:Condens. Matter 29 465901 (2017);
         "P. Giannozzi et al., J. Chem. Phys. 152 154105 (2020);
          URL http://www.quantum-espresso.org", 
     in publications or presentations arising from this work. More details at
     http://www.quantum-espresso.org/quote

     Parallel version (MPI & OpenMP), running on     512 processor cores
     Number of MPI processes:               512
     Threads/MPI process:                     1

     MPI processes distributed on     4 nodes
     228720 MiB available memory on the printing compute node when the environment starts

     Reading input from espresso.pwi
Warning: card &CELL ignored
Warning: card    PRESS_CONV_THR   = 0.1 ignored
Warning: card    CELL_DOFREE      = 'ALL' ignored
Warning: card / ignored
Warning: card &FCP ignored
Warning: card / ignored
Warning: card &RISM ignored
Warning: card / ignored

     Current dimensions of program PWSCF are:
     Max number of different atomic species (ntypx) = 10
     Max number of k-points (npk) =  40000
     Max angular momentum in pseudopotentials (lmaxx) =  4

     IMPORTANT: XC functional enforced from input :
     Exchange-correlation= PBE
                           (   1   4   3   4   0   0   0)
     Any further DFT definition will be discarded
     Please, verify this is what you really want


     Reading input from environ.in:
     * using ionic solvent mode
     * setting boundary derivatives method to SSCS default
     * setting electrolyte-boundary derivatives method to SSCS default

Environ Warning (1001): card EOF ignored

     

     K-points division:     npool     =       2
     R & G space division:  proc/nbgrp/npool/nimage =     256
     Subspace diagonalization in iterative solution of the eigenvalue problem:
     one sub-group per band group will be used
     ELPA distributed-memory algorithm (size of sub-group:  2*  2 procs)


     Parallelization info
     --------------------
     sticks:   dense  smooth     PW     G-vecs:    dense   smooth      PW
     Min          91      36      9                56517    14280    1907
     Max          92      37     10                56562    14325    1964
     Sum       23389    9361   2459             14473305  3661695  495499

     Using Slab Decomposition



     bravais-lattice index     =           12
     lattice parameter (alat)  =      18.3607  a.u.
     unit-cell volume          =   37876.5244 (a.u.)^3
     number of atoms/cell      =           76
     number of atomic types    =            1
     number of electrons       =       228.00
     number of Kohn-Sham states=          171
     kinetic-energy cutoff     =      80.0000  Ry
     charge density cutoff     =     800.0000  Ry
     scf convergence threshold =      1.0E-14
     mixing beta               =       0.2000
     number of iterations used =            8  local-TF  mixing
     Exchange-correlation= PBE
                           (   1   4   3   4   0   0   0)

     ================================================================================

                                  Environ Setup Summary

     ================================================================================

     Please cite

          O. Andreussi, I. Dabo and N. Marzari, J. Chem. Phys. 136, 064102 (2012)
          F. Nattino, M. Truscott, N. Marzari, and O. Andreussi, J. Chem. Phys. 150, 041722 (2019)

     in publications or presentations arising from this work.

     ================================================================================

     Parameters
     ==========

     compensation onset threshold      =               0.1000E+00
     static permittivity               =                    89.90
     surface tension in input (dyn/cm) =                    37.30
     surface tension in internal units =               0.4792E-04

     Solvent Boundary
     ================

     solvent mode                      =                    ionic
     derivatives method                =                   lowmem
     electrolyte derivatives method    =                   lowmem
     numerical core for derivatives    =                      fft
     switching function adopted        =                     SCCS
     density limit for vacuum region   =               0.5000E-02
     density limit for bulk solvent    =               0.1000E-03
     soft-sphere radius mode           =                    bondi
     soft-sphere softness              =                     0.50
     alpha                             =                     1.32

     Electrostatic Setup
     ===================

     electrostatic problem to solve    =                    modpb
     numerical solver adopted          =                   newton
     type of auxiliary density adopted =                     none
     numerical core for poisson        =                      fft
     adopting a nested solver scheme
     inner solver                      =                       cg
     inner core                        =                      fft
     type of pbc corrections           =                parabolic
     numerical core for corrections    =                      1da

     ================================================================================


     >>>>> Grand-Canonical SCF is activated <<<<<
     Initial Total Charge  =     0.000000 e
     Target Fermi Energy   =    -1.404000 eV
     Thr. of Fermi Energy  =     0.001000 eV
     Wave-shift of Kerker  =     0.400000 bohr^-1
     Wave-shift of Hartree =     1.500000 bohr^-1
     Mixing Rate of Fermi  =     0.050000

     celldm(1)=  18.360747  celldm(2)=   1.118034  celldm(3)=   5.615419
     celldm(4)=   0.223607  celldm(5)=   0.000000  celldm(6)=   0.000000

     crystal axes: (cart. coord. in units of alat)
               a(1) = (   1.000000   0.000000   0.000000 )  
               a(2) = (   0.250000   1.089725   0.000000 )  
               a(3) = (   0.000000   0.000000   5.615419 )  

     reciprocal axes: (cart. coord. in units 2 pi/alat)
               b(1) = (  1.000000 -0.229416  0.000000 )  
               b(2) = (  0.000000  0.917663  0.000000 )  
               b(3) = (  0.000000  0.000000  0.178081 )  


     PseudoPot. # 1 for Li read from file:
     /work/e89/e89/ba3g18/Repos/Pseudopotentials/Pslibrary/Li.pbe-sl-kjpaw_psl.1.0.0.UPF
     MD5 check sum: 3f4d2cafebb47c6c3aa8ed472e6f074d
     Pseudo is Projector augmented-wave, Zval =  3.0
     Generated using 'atomic' code by A. Dal Corso  v.7.4
     Shape of augmentation charge: PSQ
     Using radial grid of 1017 points,  4 beta functions with: 
                l(1) =   0
                l(2) =   0
                l(3) =   1
                l(4) =   1
     Q(r) pseudized with 0 coefficients 


     atomic species   valence    mass     pseudopotential
     Li                3.00     6.94000     Li( 1.00)

     No symmetry found


                                    s                        frac. trans.

      isym =  1     identity                                     

 cryst.   s( 1) = (     1          0          0      )
                  (     0          1          0      )
                  (     0          0          1      )

 cart.    s( 1) = (  1.0000000  0.0000000  0.0000000 )
                  (  0.0000000  1.0000000  0.0000000 )
                  (  0.0000000  0.0000000  1.0000000 )


     point group C_1 (1)    
     there are  1 classes
     the character table:

       E    
A      1.00

     the symmetry operations in each class and the name of the first element:

     E        1
          identity                                               

   Cartesian axes

     site n.     atom                  positions (alat units)
         1        Li     tau(   1) = (   0.0010506  -0.0055957   3.5447400  )
         2        Li     tau(   2) = (   0.2489650   0.7405774   2.0882661  )
         3        Li     tau(   3) = (   0.2489466   0.4021099   2.1826776  )
         4        Li     tau(   4) = (   0.2489278   0.0643067   2.2713596  )
         5        Li     tau(   5) = (   0.4988954   0.8008034   2.3449698  )
         6        Li     tau(   6) = (   0.4988863   0.4535387   2.4088193  )
         7        Li     tau(   7) = (   0.4989017   0.1159072   2.4921598  )
         8        Li     tau(   8) = (   0.2490883   0.8610576   2.5856818  )
         9        Li     tau(   9) = (   0.2493783   0.5179504   2.6650278  )
        10        Li     tau(  10) = (   0.2497200   0.1737717   2.7455520  )
        11        Li     tau(  11) = (   0.5001258   0.9140522   2.8315046  )
        12        Li     tau(  12) = (   0.5005288   0.5719317   2.9137051  )
        13        Li     tau(  13) = (   0.5008043   0.2362597   2.9908098  )
        14        Li     tau(  14) = (   0.2509783   0.9781529   3.0691223  )
        15        Li     tau(  15) = (   0.2511202   0.6274745   3.1509602  )
        16        Li     tau(  16) = (   0.2511054   0.2844830   3.2367610  )
        17        Li     tau(  17) = (   0.5010802   1.0355159   3.3237719  )
        18        Li     tau(  18) = (   0.5010565   0.6948590   3.4195229  )
        19        Li     tau(  19) = (   0.5010433   0.3379844   3.4846078  )
        20        Li     tau(  20) = (   0.2489246   0.9719720   2.2910071  )
        21        Li     tau(  21) = (   0.2488936   0.6330445   2.3787579  )
        22        Li     tau(  22) = (   0.2488790   0.2894013   2.4643109  )
        23        Li     tau(  23) = (   0.4990081   1.0298713   2.5461428  )
        24        Li     tau(  24) = (   0.4992092   0.6822242   2.6256550  )
        25        Li     tau(  25) = (   0.4994957   0.3451127   2.7017708  )
        26        Li     tau(  26) = (   0.4998676   0.0047074   2.7839271  )
        27        Li     tau(  27) = (   0.2502796   0.7442460   2.8698035  )
        28        Li     tau(  28) = (   0.2506568   0.3993788   2.9502434  )
        29        Li     tau(  29) = (   0.2509138   0.0573438   3.0297958  )
        30        Li     tau(  30) = (   0.5010832   0.8010531   3.1232130  )
        31        Li     tau(  31) = (   0.5011107   0.4643551   3.2076508  )
        32        Li     tau(  32) = (   0.5011005   0.1170656   3.2704122  )
        33        Li     tau(  33) = (   0.2510721   0.8527682   3.3433040  )
        34        Li     tau(  34) = (   0.2510451   0.5147381   3.4324446  )
        35        Li     tau(  35) = (   0.2510224   0.1772869   3.5267712  )
        36        Li     tau(  36) = (   0.4989428   0.9238058   2.0700339  )
        37        Li     tau(  37) = (   0.4989488   0.5795404   2.1312021  )
        38        Li     tau(  38) = (   0.4989421   0.2219723   2.1964782  )
        39        Li     tau(  39) = (   0.5010473  -0.0056031   3.5447373  )
        40        Li     tau(  40) = (   0.7489692   0.7405795   2.0882682  )
        41        Li     tau(  41) = (   0.7489418   0.4021082   2.1826773  )
        42        Li     tau(  42) = (   0.7489272   0.0643109   2.2713619  )
        43        Li     tau(  43) = (   0.9988938   0.8008032   2.3449663  )
        44        Li     tau(  44) = (   0.9988873   0.4535421   2.4088228  )
        45        Li     tau(  45) = (   0.9989031   0.1159043   2.4921647  )
        46        Li     tau(  46) = (   0.7490826   0.8610582   2.5856770  )
        47        Li     tau(  47) = (   0.7493780   0.5179541   2.6650242  )
        48        Li     tau(  48) = (   0.7497173   0.1737695   2.7455461  )
        49        Li     tau(  49) = (   1.0001272   0.9140561   2.8315091  )
        50        Li     tau(  50) = (   1.0005254   0.5719292   2.9137091  )
        51        Li     tau(  51) = (   1.0008092   0.2362665   2.9908107  )
        52        Li     tau(  52) = (   0.7509883   0.9781548   3.0691208  )
        53        Li     tau(  53) = (   0.7511178   0.6274713   3.1509551  )
        54        Li     tau(  54) = (   0.7511070   0.2844840   3.2367611  )
        55        Li     tau(  55) = (   1.0010766   1.0355232   3.3237688  )
        56        Li     tau(  56) = (   1.0010565   0.6948637   3.4195330  )
        57        Li     tau(  57) = (   1.0010460   0.3379773   3.4846142  )
        58        Li     tau(  58) = (   0.7489216   0.9719794   2.2909979  )
        59        Li     tau(  59) = (   0.7488923   0.6330443   2.3787558  )
        60        Li     tau(  60) = (   0.7488782   0.2894024   2.4643129  )
        61        Li     tau(  61) = (   0.9990068   1.0298671   2.5461471  )
        62        Li     tau(  62) = (   0.9992158   0.6822298   2.6256545  )
        63        Li     tau(  63) = (   0.9994911   0.3451081   2.7017709  )
        64        Li     tau(  64) = (   0.9998648   0.0047105   2.7839319  )
        65        Li     tau(  65) = (   0.7502774   0.7442486   2.8698008  )
        66        Li     tau(  66) = (   0.7506511   0.3993738   2.9502392  )
        67        Li     tau(  67) = (   0.7509138   0.0573494   3.0297877  )
        68        Li     tau(  68) = (   1.0010796   0.8010503   3.1232188  )
        69        Li     tau(  69) = (   1.0011092   0.4643668   3.2076588  )
        70        Li     tau(  70) = (   1.0011101   0.1170637   3.2704131  )
        71        Li     tau(  71) = (   0.7510776   0.8527656   3.3433001  )
        72        Li     tau(  72) = (   0.7510573   0.5147351   3.4324497  )
        73        Li     tau(  73) = (   0.7510152   0.1772882   3.5267810  )
        74        Li     tau(  74) = (   0.9989455   0.9238150   2.0700355  )
        75        Li     tau(  75) = (   0.9989492   0.5795387   2.1312047  )
        76        Li     tau(  76) = (   0.9989426   0.2219705   2.1964850  )

   Crystallographic axes

     site n.     atom                  positions (cryst. coord.)
         1        Li     tau(   1) = (  0.0023343 -0.0051349  0.6312512  )
         2        Li     tau(   2) = (  0.0790649  0.6796003  0.3718807  )
         3        Li     tau(   3) = (  0.1566963  0.3690013  0.3886936  )
         4        Li     tau(   4) = (  0.2341748  0.0590118  0.4044862  )
         5        Li     tau(   5) = (  0.3151786  0.7348674  0.4175948  )
         6        Li     tau(   6) = (  0.3948374  0.4161955  0.4289652  )
         7        Li     tau(   7) = (  0.4723107  0.1063637  0.4438066  )
         8        Li     tau(   8) = (  0.0515482  0.7901604  0.4604611  )
         9        Li     tau(   9) = (  0.1305524  0.4753038  0.4745911  )
        10        Li     tau(  10) = (  0.2098540  0.1594638  0.4889309  )
        11        Li     tau(  11) = (  0.2904278  0.8387916  0.5042375  )
        12        Li     tau(  12) = (  0.3693187  0.5248404  0.5188758  )
        13        Li     tau(  13) = (  0.4466026  0.2168067  0.5326067  )
        14        Li     tau(  14) = (  0.0265747  0.8976144  0.5465527  )
        15        Li     tau(  15) = (  0.1071677  0.5758099  0.5611265  )
        16        Li     tau(  16) = (  0.1858405  0.2610594  0.5764060  )
        17        Li     tau(  17) = (  0.2635166  0.9502543  0.5919010  )
        18        Li     tau(  18) = (  0.3416450  0.6376462  0.6089524  )
        19        Li     tau(  19) = (  0.4235043  0.3101557  0.6205428  )
        20        Li     tau(  20) = (  0.0259389  0.8919425  0.4079851  )
        21        Li     tau(  21) = (  0.1036632  0.5809213  0.4236118  )
        22        Li     tau(  22) = (  0.1824858  0.2655728  0.4388472  )
        23        Li     tau(  23) = (  0.2627395  0.9450745  0.4534199  )
        24        Li     tau(  24) = (  0.3426963  0.6260517  0.4675795  )
        25        Li     tau(  25) = (  0.4203214  0.3166971  0.4811343  )
        26        Li     tau(  26) = (  0.4987877  0.0043198  0.4957648  )
        27        Li     tau(  27) = (  0.0795379  0.6829668  0.5110578  )
        28        Li     tau(  28) = (  0.1590330  0.3664950  0.5253826  )
        29        Li     tau(  29) = (  0.2377582  0.0526223  0.5395494  )
        30        Li     tau(  30) = (  0.3173091  0.7350966  0.5561852  )
        31        Li     tau(  31) = (  0.3945803  0.4261214  0.5712220  )
        32        Li     tau(  32) = (  0.4742438  0.1074267  0.5823986  )
        33        Li     tau(  33) = (  0.0554337  0.7825536  0.5953793  )
        34        Li     tau(  34) = (  0.1329561  0.4723560  0.6112535  )
        35        Li     tau(  35) = (  0.2103500  0.1626895  0.6280513  )
        36        Li     tau(  36) = (  0.2870073  0.8477421  0.3686339  )
        37        Li     tau(  37) = (  0.3659931  0.5318226  0.3795268  )
        38        Li     tau(  38) = (  0.4480182  0.2036957  0.3911513  )
        39        Li     tau(  39) = (  0.5023327 -0.0051417  0.6312507  )
        40        Li     tau(  40) = (  0.5790686  0.6796022  0.3718811  )
        41        Li     tau(  41) = (  0.6566919  0.3689997  0.3886936  )
        42        Li     tau(  42) = (  0.7341733  0.0590157  0.4044866  )
        43        Li     tau(  43) = (  0.8151770  0.7348673  0.4175942  )
        44        Li     tau(  44) = (  0.8948377  0.4161986  0.4289658  )
        45        Li     tau(  45) = (  0.9723129  0.1063611  0.4438074  )
        46        Li     tau(  46) = (  0.5515423  0.7901610  0.4604602  )
        47        Li     tau(  47) = (  0.6305512  0.4753072  0.4745904  )
        48        Li     tau(  48) = (  0.7098519  0.1594618  0.4889299  )
        49        Li     tau(  49) = (  0.7904284  0.8387952  0.5042383  )
        50        Li     tau(  50) = (  0.8693159  0.5248381  0.5188765  )
        51        Li     tau(  51) = (  0.9466060  0.2168129  0.5326069  )
        52        Li     tau(  52) = (  0.5265842  0.8976162  0.5465524  )
        53        Li     tau(  53) = (  0.6071660  0.5758070  0.5611256  )
        54        Li     tau(  54) = (  0.6858419  0.2610603  0.5764060  )
        55        Li     tau(  55) = (  0.7635114  0.9502610  0.5919004  )
        56        Li     tau(  56) = (  0.8416439  0.6376505  0.6089542  )
        57        Li     tau(  57) = (  0.9235087  0.3101492  0.6205439  )
        58        Li     tau(  58) = (  0.5259343  0.8919493  0.4079834  )
        59        Li     tau(  59) = (  0.6036620  0.5809212  0.4236115  )
        60        Li     tau(  60) = (  0.6824848  0.2655738  0.4388475  )
        61        Li     tau(  61) = (  0.7627392  0.9450706  0.4534207  )
        62        Li     tau(  62) = (  0.8427015  0.6260569  0.4675794  )
        63        Li     tau(  63) = (  0.9203179  0.3166928  0.4811343  )
        64        Li     tau(  64) = (  0.9987841  0.0043226  0.4957657  )
        65        Li     tau(  65) = (  0.5795352  0.6829692  0.5110573  )
        66        Li     tau(  66) = (  0.6590285  0.3664905  0.5253818  )
        67        Li     tau(  67) = (  0.7377570  0.0526274  0.5395479  )
        68        Li     tau(  68) = (  0.8173061  0.7350940  0.5561862  )
        69        Li     tau(  69) = (  0.8945762  0.4261321  0.5712234  )
        70        Li     tau(  70) = (  0.9742538  0.1074250  0.5823988  )
        71        Li     tau(  71) = (  0.5554398  0.7825512  0.5953786  )
        72        Li     tau(  72) = (  0.6329690  0.4723532  0.6112544  )
        73        Li     tau(  73) = (  0.7103425  0.1626908  0.6280530  )
        74        Li     tau(  74) = (  0.7870078  0.8477506  0.3686342  )
        75        Li     tau(  75) = (  0.8659940  0.5318210  0.3795273  )
        76        Li     tau(  76) = (  0.9480191  0.2036941  0.3911525  )

     number of k points=    22  Marzari-Vanderbilt smearing, width (Ry)=  0.0100
                       cart. coord. in units 2pi/alat
        k(    1) = (   0.0000000   0.0000000   0.0000000), wk =   0.0476190
        k(    2) = (   0.0000000   0.1529438   0.0000000), wk =   0.0952381
        k(    3) = (   0.0000000   0.3058876   0.0000000), wk =   0.0952381
        k(    4) = (   0.0000000  -0.4588314   0.0000000), wk =   0.0476190
        k(    5) = (   0.1428571  -0.0327737   0.0000000), wk =   0.0952381
        k(    6) = (   0.1428571   0.1201701   0.0000000), wk =   0.0952381
        k(    7) = (   0.1428571   0.2731139   0.0000000), wk =   0.0952381
        k(    8) = (   0.1428571  -0.4916050   0.0000000), wk =   0.0952381
        k(    9) = (   0.1428571  -0.3386612   0.0000000), wk =   0.0952381
        k(   10) = (   0.1428571  -0.1857175   0.0000000), wk =   0.0952381
        k(   11) = (   0.2857143  -0.0655473   0.0000000), wk =   0.0952381
        k(   12) = (   0.2857143   0.0873964   0.0000000), wk =   0.0952381
        k(   13) = (   0.2857143   0.2403402   0.0000000), wk =   0.0952381
        k(   14) = (   0.2857143  -0.5243787   0.0000000), wk =   0.0952381
        k(   15) = (   0.2857143  -0.3714349   0.0000000), wk =   0.0952381
        k(   16) = (   0.2857143  -0.2184911   0.0000000), wk =   0.0952381
        k(   17) = (   0.4285714  -0.0983210   0.0000000), wk =   0.0952381
        k(   18) = (   0.4285714   0.0546228   0.0000000), wk =   0.0952381
        k(   19) = (   0.4285714   0.2075666   0.0000000), wk =   0.0952381
        k(   20) = (   0.4285714  -0.5571524   0.0000000), wk =   0.0952381
        k(   21) = (   0.4285714  -0.4042086   0.0000000), wk =   0.0952381
        k(   22) = (   0.4285714  -0.2512648   0.0000000), wk =   0.0952381

                       cryst. coord.
        k(    1) = (   0.0000000   0.0000000   0.0000000), wk =   0.0476190
        k(    2) = (   0.0000000   0.1666667   0.0000000), wk =   0.0952381
        k(    3) = (   0.0000000   0.3333333   0.0000000), wk =   0.0952381
        k(    4) = (   0.0000000  -0.5000000   0.0000000), wk =   0.0476190
        k(    5) = (   0.1428571   0.0000000   0.0000000), wk =   0.0952381
        k(    6) = (   0.1428571   0.1666667   0.0000000), wk =   0.0952381
        k(    7) = (   0.1428571   0.3333333   0.0000000), wk =   0.0952381
        k(    8) = (   0.1428571  -0.5000000   0.0000000), wk =   0.0952381
        k(    9) = (   0.1428571  -0.3333333   0.0000000), wk =   0.0952381
        k(   10) = (   0.1428571  -0.1666667   0.0000000), wk =   0.0952381
        k(   11) = (   0.2857143   0.0000000   0.0000000), wk =   0.0952381
        k(   12) = (   0.2857143   0.1666667   0.0000000), wk =   0.0952381
        k(   13) = (   0.2857143   0.3333333   0.0000000), wk =   0.0952381
        k(   14) = (   0.2857143  -0.5000000   0.0000000), wk =   0.0952381
        k(   15) = (   0.2857143  -0.3333333   0.0000000), wk =   0.0952381
        k(   16) = (   0.2857143  -0.1666667   0.0000000), wk =   0.0952381
        k(   17) = (   0.4285714   0.0000000   0.0000000), wk =   0.0952381
        k(   18) = (   0.4285714   0.1666667   0.0000000), wk =   0.0952381
        k(   19) = (   0.4285714   0.3333333   0.0000000), wk =   0.0952381
        k(   20) = (   0.4285714  -0.5000000   0.0000000), wk =   0.0952381
        k(   21) = (   0.4285714  -0.3333333   0.0000000), wk =   0.0952381
        k(   22) = (   0.4285714  -0.1666667   0.0000000), wk =   0.0952381

     Dense  grid: 14473305 G-vectors     FFT dimensions: ( 180, 192, 960)

     Smooth grid:  3661695 G-vectors     FFT dimensions: ( 108, 120, 600)

     Dynamical RAM for                 wfc:       4.66 MB

     Dynamical RAM for     wfc (w. buffer):      55.95 MB

     Dynamical RAM for           str. fact:       0.86 MB

     Dynamical RAM for           local pot:       0.00 MB

     Dynamical RAM for          nlocal pot:      16.58 MB

     Dynamical RAM for                qrad:       0.65 MB

     Dynamical RAM for          rho,v,vnew:       5.75 MB

     Dynamical RAM for               rhoin:       1.92 MB

     Dynamical RAM for            rho*nmix:      13.80 MB

     Dynamical RAM for           G-vectors:       3.34 MB

     Dynamical RAM for          h,s,v(r/c):       5.35 MB

     Dynamical RAM for          <psi|beta>:       1.59 MB

     Dynamical RAM for                 psi:      18.65 MB

     Dynamical RAM for                hpsi:      18.65 MB

     Dynamical RAM for                spsi:      18.65 MB

     Dynamical RAM for      wfcinit/wfcrot:      10.00 MB

     Dynamical RAM for           addusdens:      51.75 MB

     Dynamical RAM for          addusforce:     116.51 MB

     Estimated static dynamical RAM per process >      92.05 MB

     Estimated max dynamical RAM per process >     222.36 MB

     Estimated total dynamical RAM >     107.73 GB

     Initial potential from superposition of free atoms

     starting charge     227.6497, renormalised to     228.0000

     negative rho (up, down):  6.517E-03 0.000E+00
     Starting wfcs are random
     Checking if some PAW data can be deallocated... 

     total cpu time spent up to now is       51.6 secs

     Self-consistent Calculation

     iteration #  1     ecut=    80.00 Ry     beta= 0.20
     Davidson diagonalization with overlap

---- Real-time Memory Report at c_bands before calling an iterative solver
          1418 MiB given to the printing process from OS
             0 MiB allocation reported by mallinfo(arena+hblkhd)
        204968 MiB available memory on the node where the printing process lives
------------------
     c_bands:  1 eigenvalues not converged
     c_bands:  1 eigenvalues not converged
     c_bands:  1 eigenvalues not converged
     ethr =  1.00E-12,  avg # of iterations =142.0

     negative rho (up, down):  4.816E-03 0.000E+00

     total cpu time spent up to now is      791.3 secs

     total energy              =   -1142.62087843 Ry
     estimated scf accuracy    <       0.25154847 Ry

     total charge of GC-SCF    =      -0.09262695 e
     the Fermi energy          =      -4.16774241 eV
                        (error :       2.76374241 eV)
     electrostatic embedding   =       0.00000000 Ry
     cavitation energy         =       0.04257005 Ry
     electrolyte free energy   =       0.01630252 Ry
     correction to one-el term =      -0.00000000 Ry

     iteration #  2     ecut=    80.00 Ry     beta= 0.20
     Davidson diagonalization with overlap

---- Real-time Memory Report at c_bands before calling an iterative solver
          1418 MiB given to the printing process from OS
             0 MiB allocation reported by mallinfo(arena+hblkhd)
        202122 MiB available memory on the node where the printing process lives
------------------
     ethr =  1.00E-05,  avg # of iterations = 20.6

     negative rho (up, down):  3.845E-03 0.000E+00

     total cpu time spent up to now is      900.8 secs

     total energy              =   -1143.04834966 Ry
     estimated scf accuracy    <       0.17857571 Ry

     total charge of GC-SCF    =      -0.13653999 e
     the Fermi energy          =      -2.54175158 eV
                        (error :       1.13775158 eV)
     electrostatic embedding   =      -0.00087583 Ry
     cavitation energy         =       0.04257005 Ry
     electrolyte free energy   =       0.01630252 Ry
     correction to one-el term =      -0.00000000 Ry

     iteration #  3     ecut=    80.00 Ry     beta= 0.20
     Davidson diagonalization with overlap

---- Real-time Memory Report at c_bands before calling an iterative solver
          1418 MiB given to the printing process from OS
             0 MiB allocation reported by mallinfo(arena+hblkhd)
        201859 MiB available memory on the node where the printing process lives
------------------
     ethr =  1.00E-05,  avg # of iterations = 16.9

     negative rho (up, down):  2.884E-03 0.000E+00

     add environment contribution to local potential

     total cpu time spent up to now is     1000.5 secs

     total energy              =   -1142.73450298 Ry
     estimated scf accuracy    <       0.07400650 Ry

     total charge of GC-SCF    =      -0.23526958 e
     the Fermi energy          =      -2.40802458 eV
                        (error :       1.00402458 eV)
     electrostatic embedding   =      -0.00129105 Ry
     cavitation energy         =       0.04257005 Ry
     electrolyte free energy   =       0.01630252 Ry
     correction to one-el term =      -0.00000000 Ry

     iteration #  4     ecut=    80.00 Ry     beta= 0.20
     Davidson diagonalization with overlap

---- Real-time Memory Report at c_bands before calling an iterative solver
          1418 MiB given to the printing process from OS
             0 MiB allocation reported by mallinfo(arena+hblkhd)
        201957 MiB available memory on the node where the printing process lives
------------------
     ethr =  1.00E-05,  avg # of iterations = 34.0

     negative rho (up, down):  2.461E-03 0.000E+00

     add environment contribution to local potential

     total cpu time spent up to now is     1153.2 secs

     total energy              =   -1142.99168769 Ry
     estimated scf accuracy    <       0.03713126 Ry

     total charge of GC-SCF    =      -0.36076867 e
     the Fermi energy          =      -2.43442207 eV
                        (error :       1.03042207 eV)
     electrostatic embedding   =      -0.05216960 Ry
     cavitation energy         =       0.04257005 Ry
     electrolyte free energy   =      -0.00086273 Ry
     correction to one-el term =      16.47854672 Ry

     iteration #  5     ecut=    80.00 Ry     beta= 0.20
     Davidson diagonalization with overlap

---- Real-time Memory Report at c_bands before calling an iterative solver
          1418 MiB given to the printing process from OS
             0 MiB allocation reported by mallinfo(arena+hblkhd)
        201800 MiB available memory on the node where the printing process lives
------------------
     ethr =  1.00E-05,  avg # of iterations = 10.0

     negative rho (up, down):  2.228E-03 0.000E+00

     add environment contribution to local potential

     total cpu time spent up to now is     1212.2 secs

     total energy              =   -1142.80522775 Ry
     estimated scf accuracy    <       0.02923950 Ry

     total charge of GC-SCF    =      -0.87627337 e
     the Fermi energy          =      -2.50386242 eV
                        (error :       1.09986242 eV)
     electrostatic embedding   =      -0.06758109 Ry
     cavitation energy         =       0.04257005 Ry
     electrolyte free energy   =      -0.00086734 Ry
     correction to one-el term =      20.14894758 Ry

     iteration #  6     ecut=    80.00 Ry     beta= 0.20
     Davidson diagonalization with overlap

---- Real-time Memory Report at c_bands before calling an iterative solver
          1418 MiB given to the printing process from OS
             0 MiB allocation reported by mallinfo(arena+hblkhd)
        201774 MiB available memory on the node where the printing process lives
------------------
     ethr =  1.00E-05,  avg # of iterations =  7.2

     negative rho (up, down):  2.043E-03 0.000E+00

     add environment contribution to local potential

     total cpu time spent up to now is     1274.2 secs

     total energy              =   -1142.85253966 Ry
     estimated scf accuracy    <       0.00782626 Ry

     total charge of GC-SCF    =      -1.51090350 e
     the Fermi energy          =      -2.49604682 eV
                        (error :       1.09204682 eV)
     electrostatic embedding   =      -0.16176746 Ry
     cavitation energy         =       0.04257005 Ry
     electrolyte free energy   =      -0.00035800 Ry
     correction to one-el term =      40.07511666 Ry

     iteration #  7     ecut=    80.00 Ry     beta= 0.20
     Davidson diagonalization with overlap

---- Real-time Memory Report at c_bands before calling an iterative solver
          1418 MiB given to the printing process from OS
             0 MiB allocation reported by mallinfo(arena+hblkhd)
        201687 MiB available memory on the node where the printing process lives
------------------
     ethr =  3.41E-06,  avg # of iterations = 15.6

     negative rho (up, down):  1.837E-03 0.000E+00

     add environment contribution to local potential

     total cpu time spent up to now is     1383.5 secs

     total energy              =   -1142.88592645 Ry
     estimated scf accuracy    <       0.00557262 Ry

     total charge of GC-SCF    =      -2.28488840 e
     the Fermi energy          =      -2.33516262 eV
                        (error :       0.93116262 eV)
     electrostatic embedding   =      -0.34719528 Ry
     cavitation energy         =       0.04257005 Ry
     electrolyte free energy   =      -0.00072917 Ry
     correction to one-el term =      68.00318679 Ry

     iteration #  8     ecut=    80.00 Ry     beta= 0.20
     Davidson diagonalization with overlap

---- Real-time Memory Report at c_bands before calling an iterative solver
          1418 MiB given to the printing process from OS
             0 MiB allocation reported by mallinfo(arena+hblkhd)
        201696 MiB available memory on the node where the printing process lives
------------------
     ethr =  2.42E-06,  avg # of iterations = 35.0

     negative rho (up, down):  1.635E-03 0.000E+00

     add environment contribution to local potential

     total cpu time spent up to now is     1540.5 secs

     total energy              =   -1143.17060738 Ry
     estimated scf accuracy    <       0.05532716 Ry

     total charge of GC-SCF    =      -2.28206247 e
     the Fermi energy          =      -1.80981898 eV
                        (error :       0.40581898 eV)
     electrostatic embedding   =      -0.65487629 Ry
     cavitation energy         =       0.04257005 Ry
     electrolyte free energy   =      -0.00722657 Ry
     correction to one-el term =      98.38476389 Ry

     iteration #  9     ecut=    80.00 Ry     beta= 0.20
     Davidson diagonalization with overlap

---- Real-time Memory Report at c_bands before calling an iterative solver
          1418 MiB given to the printing process from OS
             0 MiB allocation reported by mallinfo(arena+hblkhd)
        201448 MiB available memory on the node where the printing process lives
------------------
     ethr =  2.42E-06,  avg # of iterations = 11.8

     negative rho (up, down):  1.540E-03 0.000E+00

     add environment contribution to local potential

     total cpu time spent up to now is     1610.5 secs

     total energy              =   -1143.02005811 Ry
     estimated scf accuracy    <       0.03913682 Ry

     total charge of GC-SCF    =      -2.75744876 e
     the Fermi energy          =      -1.90287651 eV
                        (error :       0.49887651 eV)
     electrostatic embedding   =      -0.65509786 Ry
     cavitation energy         =       0.04257005 Ry
     electrolyte free energy   =      -0.00619142 Ry
     correction to one-el term =      98.11123370 Ry

     iteration # 10     ecut=    80.00 Ry     beta= 0.20
     Davidson diagonalization with overlap

---- Real-time Memory Report at c_bands before calling an iterative solver
          1418 MiB given to the printing process from OS
             0 MiB allocation reported by mallinfo(arena+hblkhd)
        201488 MiB available memory on the node where the printing process lives
------------------
     ethr =  2.42E-06,  avg # of iterations = 12.7

     negative rho (up, down):  1.359E-03 0.000E+00

     add environment contribution to local potential

     total cpu time spent up to now is     1693.3 secs

     total energy              =   -1143.33971157 Ry
     estimated scf accuracy    <       0.02684993 Ry

     total charge of GC-SCF    =      -2.52998260 e
     the Fermi energy          =      -1.93420669 eV
                        (error :       0.53020669 eV)
     electrostatic embedding   =      -0.90957621 Ry
     cavitation energy         =       0.04257005 Ry
     electrolyte free energy   =      -0.00780380 Ry
     correction to one-el term =     115.17854609 Ry

     iteration # 11     ecut=    80.00 Ry     beta= 0.20
     Davidson diagonalization with overlap

---- Real-time Memory Report at c_bands before calling an iterative solver
          1418 MiB given to the printing process from OS
             0 MiB allocation reported by mallinfo(arena+hblkhd)
        201499 MiB available memory on the node where the printing process lives
------------------
     ethr =  2.42E-06,  avg # of iterations = 13.8

     negative rho (up, down):  1.274E-03 0.000E+00

     add environment contribution to local potential

     total cpu time spent up to now is     1787.7 secs

     total energy              =   -1143.27296530 Ry
     estimated scf accuracy    <       0.05957927 Ry

     total charge of GC-SCF    =      -2.51305953 e
     the Fermi energy          =      -1.85521776 eV
                        (error :       0.45121776 eV)
     electrostatic embedding   =      -0.77422467 Ry
     cavitation energy         =       0.04257005 Ry
     electrolyte free energy   =      -0.00760689 Ry
     correction to one-el term =     106.14518808 Ry

     iteration # 12     ecut=    80.00 Ry     beta= 0.20
     Davidson diagonalization with overlap

---- Real-time Memory Report at c_bands before calling an iterative solver
          1418 MiB given to the printing process from OS
             0 MiB allocation reported by mallinfo(arena+hblkhd)
        201473 MiB available memory on the node where the printing process lives
------------------
     ethr =  2.42E-06,  avg # of iterations = 10.2

     negative rho (up, down):  1.757E-03 0.000E+00

     add environment contribution to local potential

     total cpu time spent up to now is     1849.4 secs

     total energy              =   -1142.88482272 Ry
     estimated scf accuracy    <       0.06604203 Ry

     total charge of GC-SCF    =      -2.92408605 e
     the Fermi energy          =      -1.82009590 eV
                        (error :       0.41609590 eV)
     electrostatic embedding   =      -0.76442805 Ry
     cavitation energy         =       0.04257005 Ry
     electrolyte free energy   =      -0.00789246 Ry
     correction to one-el term =     105.63971497 Ry

     iteration # 13     ecut=    80.00 Ry     beta= 0.20
     Davidson diagonalization with overlap

---- Real-time Memory Report at c_bands before calling an iterative solver
          1418 MiB given to the printing process from OS
             0 MiB allocation reported by mallinfo(arena+hblkhd)
        201406 MiB available memory on the node where the printing process lives
------------------
     ethr =  2.42E-06,  avg # of iterations = 14.6

     negative rho (up, down):  1.547E-03 0.000E+00

     add environment contribution to local potential

     total cpu time spent up to now is     1949.9 secs

     total energy              =   -1143.22527570 Ry
     estimated scf accuracy    <       0.00785781 Ry

     total charge of GC-SCF    =      -2.88892821 e
     the Fermi energy          =      -2.15816535 eV
                        (error :       0.75416535 eV)
     electrostatic embedding   =      -1.00494784 Ry
     cavitation energy         =       0.04257005 Ry
     electrolyte free energy   =      -0.00628580 Ry
     correction to one-el term =     119.44277374 Ry

     iteration # 14     ecut=    80.00 Ry     beta= 0.20
     Davidson diagonalization with overlap

---- Real-time Memory Report at c_bands before calling an iterative solver
          1418 MiB given to the printing process from OS
             0 MiB allocation reported by mallinfo(arena+hblkhd)
        201208 MiB available memory on the node where the printing process lives
------------------
     ethr =  2.42E-06,  avg # of iterations = 12.0

     negative rho (up, down):  1.342E-03 0.000E+00

     add environment contribution to local potential

     total cpu time spent up to now is     2018.6 secs

     total energy              =   -1143.16478884 Ry
     estimated scf accuracy    <       0.00568828 Ry

     total charge of GC-SCF    =      -3.05928961 e
     the Fermi energy          =      -2.20547330 eV
                        (error :       0.80147330 eV)
     electrostatic embedding   =      -0.98842440 Ry
     cavitation energy         =       0.04257005 Ry
     electrolyte free energy   =      -0.00578005 Ry
     correction to one-el term =     117.96454248 Ry

     iteration # 15     ecut=    80.00 Ry     beta= 0.20
     Davidson diagonalization with overlap

---- Real-time Memory Report at c_bands before calling an iterative solver
          1418 MiB given to the printing process from OS
             0 MiB allocation reported by mallinfo(arena+hblkhd)
        201219 MiB available memory on the node where the printing process lives
------------------
     ethr =  2.42E-06,  avg # of iterations =  7.0

     negative rho (up, down):  1.175E-03 0.000E+00

     add environment contribution to local potential

     total cpu time spent up to now is     2073.5 secs

     total energy              =   -1143.16715880 Ry
     estimated scf accuracy    <       0.00454979 Ry

     total charge of GC-SCF    =      -3.27094988 e
     the Fermi energy          =      -2.21079560 eV
                        (error :       0.80679560 eV)
     electrostatic embedding   =      -1.09422415 Ry
     cavitation energy         =       0.04257005 Ry
     electrolyte free energy   =      -0.00665000 Ry
     correction to one-el term =     123.91643108 Ry

     iteration # 16     ecut=    80.00 Ry     beta= 0.20
     Davidson diagonalization with overlap

---- Real-time Memory Report at c_bands before calling an iterative solver
          1418 MiB given to the printing process from OS
             0 MiB allocation reported by mallinfo(arena+hblkhd)
        201284 MiB available memory on the node where the printing process lives
------------------
     ethr =  1.97E-06,  avg # of iterations = 15.5

     negative rho (up, down):  1.101E-03 0.000E+00

     add environment contribution to local potential

     total cpu time spent up to now is     2169.0 secs

     total energy              =   -1143.10998609 Ry
     estimated scf accuracy    <       0.00225333 Ry

     total charge of GC-SCF    =      -3.80807433 e
     the Fermi energy          =      -2.28887643 eV
                        (error :       0.88487643 eV)
     electrostatic embedding   =      -1.23953477 Ry
     cavitation energy         =       0.04257005 Ry
     electrolyte free energy   =      -0.00749653 Ry
     correction to one-el term =     130.23283299 Ry

     iteration # 17     ecut=    80.00 Ry     beta= 0.20
     Davidson diagonalization with overlap

---- Real-time Memory Report at c_bands before calling an iterative solver
          1418 MiB given to the printing process from OS
             0 MiB allocation reported by mallinfo(arena+hblkhd)
        201342 MiB available memory on the node where the printing process lives
------------------
     ethr =  9.72E-07,  avg # of iterations = 11.5

     negative rho (up, down):  9.155E-04 0.000E+00

     add environment contribution to local potential

     total cpu time spent up to now is     2258.2 secs

     total energy              =   -1143.05340618 Ry
     estimated scf accuracy    <       0.00197651 Ry

     total charge of GC-SCF    =      -4.83260268 e
     the Fermi energy          =      -2.24431459 eV
                        (error :       0.84031459 eV)
     electrostatic embedding   =      -1.62043295 Ry
     cavitation energy         =       0.04257005 Ry
     electrolyte free energy   =      -0.01151209 Ry
     correction to one-el term =     149.34832851 Ry

     iteration # 18     ecut=    80.00 Ry     beta= 0.20
     Davidson diagonalization with overlap

---- Real-time Memory Report at c_bands before calling an iterative solver
          1418 MiB given to the printing process from OS
             0 MiB allocation reported by mallinfo(arena+hblkhd)
        201404 MiB available memory on the node where the printing process lives
------------------
     ethr =  8.49E-07,  avg # of iterations = 18.3

     negative rho (up, down):  8.535E-04 0.000E+00

     add environment contribution to local potential

     total cpu time spent up to now is     2375.2 secs

     total energy              =   -1143.23535082 Ry
     estimated scf accuracy    <       0.00571970 Ry

     total charge of GC-SCF    =      -5.16180526 e
     the Fermi energy          =      -2.04195238 eV
                        (error :       0.63795238 eV)
     electrostatic embedding   =      -2.45066916 Ry
     cavitation energy         =       0.04257005 Ry
     electrolyte free energy   =      -0.02334830 Ry
     correction to one-el term =     184.12676296 Ry

     iteration # 19     ecut=    80.00 Ry     beta= 0.20
     Davidson diagonalization with overlap

---- Real-time Memory Report at c_bands before calling an iterative solver
          1418 MiB given to the printing process from OS
             0 MiB allocation reported by mallinfo(arena+hblkhd)
        201204 MiB available memory on the node where the printing process lives
------------------
     ethr =  8.49E-07,  avg # of iterations = 12.8

     negative rho (up, down):  7.644E-04 0.000E+00

     add environment contribution to local potential

     total cpu time spent up to now is     2465.4 secs

     total energy              =   -1143.17212046 Ry
     estimated scf accuracy    <       0.00200538 Ry

     total charge of GC-SCF    =      -6.13669529 e
     the Fermi energy          =      -2.10839938 eV
                        (error :       0.70439938 eV)
     electrostatic embedding   =      -2.75514494 Ry
     cavitation energy         =       0.04257005 Ry
     electrolyte free energy   =      -0.02710153 Ry
     correction to one-el term =     193.54271159 Ry

     iteration # 20     ecut=    80.00 Ry     beta= 0.20
     Davidson diagonalization with overlap

---- Real-time Memory Report at c_bands before calling an iterative solver
          1418 MiB given to the printing process from OS
             0 MiB allocation reported by mallinfo(arena+hblkhd)
        201338 MiB available memory on the node where the printing process lives
------------------
     ethr =  8.49E-07,  avg # of iterations = 15.2

     negative rho (up, down):  7.341E-04 0.000E+00

     add environment contribution to local potential

     total cpu time spent up to now is     2585.2 secs

     total energy              =   -1143.22055568 Ry
     estimated scf accuracy    <       0.00398220 Ry

     total charge of GC-SCF    =      -7.21938292 e
     the Fermi energy          =      -1.93937653 eV
                        (error :       0.53537653 eV)
     electrostatic embedding   =      -3.74004088 Ry
     cavitation energy         =       0.04257005 Ry
     electrolyte free energy   =      -0.04557488 Ry
     correction to one-el term =     224.47580510 Ry

     iteration # 21     ecut=    80.00 Ry     beta= 0.20
     Davidson diagonalization with overlap

---- Real-time Memory Report at c_bands before calling an iterative solver
          1418 MiB given to the printing process from OS
             0 MiB allocation reported by mallinfo(arena+hblkhd)
        201222 MiB available memory on the node where the printing process lives
------------------
     ethr =  8.49E-07,  avg # of iterations = 10.7

     negative rho (up, down):  6.954E-04 0.000E+00

     add environment contribution to local potential

     total cpu time spent up to now is     2680.5 secs

     total energy              =   -1143.35093403 Ry
     estimated scf accuracy    <       0.00063551 Ry

     total charge of GC-SCF    =      -8.59291222 e
     the Fermi energy          =      -1.92088212 eV
                        (error :       0.51688212 eV)
     electrostatic embedding   =      -5.00797709 Ry
     cavitation energy         =       0.04257005 Ry
     electrolyte free energy   =      -0.07232219 Ry
     correction to one-el term =     256.42164247 Ry

     iteration # 22     ecut=    80.00 Ry     beta= 0.20
     Davidson diagonalization with overlap

---- Real-time Memory Report at c_bands before calling an iterative solver
          1418 MiB given to the printing process from OS
             0 MiB allocation reported by mallinfo(arena+hblkhd)
        201334 MiB available memory on the node where the printing process lives
------------------
     ethr =  2.69E-07,  avg # of iterations = 35.4

     negative rho (up, down):  6.556E-04 0.000E+00

     add environment contribution to local potential

     total cpu time spent up to now is     2855.0 secs

     total energy              =   -1143.40629549 Ry
     estimated scf accuracy    <       0.00395940 Ry

     total charge of GC-SCF    =      -9.10206102 e
     the Fermi energy          =      -1.60723859 eV
                        (error :       0.20323859 eV)
     electrostatic embedding   =      -6.84639607 Ry
     cavitation energy         =       0.04257005 Ry
     electrolyte free energy   =      -0.12381143 Ry
     correction to one-el term =     298.01157557 Ry

     iteration # 23     ecut=    80.00 Ry     beta= 0.20
     Davidson diagonalization with overlap

---- Real-time Memory Report at c_bands before calling an iterative solver
          1418 MiB given to the printing process from OS
             0 MiB allocation reported by mallinfo(arena+hblkhd)
        201131 MiB available memory on the node where the printing process lives
------------------
     ethr =  2.69E-07,  avg # of iterations = 16.0

     negative rho (up, down):  6.285E-04 0.000E+00

     add environment contribution to local potential

     total cpu time spent up to now is     2980.6 secs

     total energy              =   -1143.38962546 Ry
     estimated scf accuracy    <       0.00619901 Ry

     total charge of GC-SCF    =      -9.80622723 e
     the Fermi energy          =      -1.50595647 eV
                        (error :       0.10195647 eV)
     electrostatic embedding   =      -7.54087638 Ry
     cavitation energy         =       0.04257005 Ry
     electrolyte free energy   =      -0.14698183 Ry
     correction to one-el term =     310.45031019 Ry

     iteration # 24     ecut=    80.00 Ry     beta= 0.20
     Davidson diagonalization with overlap

---- Real-time Memory Report at c_bands before calling an iterative solver
          1418 MiB given to the printing process from OS
             0 MiB allocation reported by mallinfo(arena+hblkhd)
        201191 MiB available memory on the node where the printing process lives
------------------
     ethr =  2.69E-07,  avg # of iterations = 13.0

     negative rho (up, down):  6.133E-04 0.000E+00

     add environment contribution to local potential

     total cpu time spent up to now is     3092.4 secs

     total energy              =   -1143.45599713 Ry
     estimated scf accuracy    <       0.00064162 Ry

     total charge of GC-SCF    =     -10.05227386 e
     the Fermi energy          =      -1.53004923 eV
                        (error :       0.12604923 eV)
     electrostatic embedding   =      -8.61250424 Ry
     cavitation energy         =       0.04257005 Ry
     electrolyte free energy   =      -0.18296217 Ry
     correction to one-el term =     328.77686933 Ry

     iteration # 25     ecut=    80.00 Ry     beta= 0.20
     Davidson diagonalization with overlap

---- Real-time Memory Report at c_bands before calling an iterative solver
          1418 MiB given to the printing process from OS
             0 MiB allocation reported by mallinfo(arena+hblkhd)
        201110 MiB available memory on the node where the printing process lives
------------------
     ethr =  2.69E-07,  avg # of iterations = 15.4

     negative rho (up, down):  6.030E-04 0.000E+00

     add environment contribution to local potential

     total cpu time spent up to now is     3215.5 secs

     total energy              =   -1143.46708270 Ry
     estimated scf accuracy    <       0.00143628 Ry

     total charge of GC-SCF    =     -10.01448115 e
     the Fermi energy          =      -1.44977650 eV
                        (error :       0.04577650 eV)
     electrostatic embedding   =      -8.95161136 Ry
     cavitation energy         =       0.04257005 Ry
     electrolyte free energy   =      -0.19779264 Ry
     correction to one-el term =     334.59989016 Ry

     iteration # 26     ecut=    80.00 Ry     beta= 0.20
     Davidson diagonalization with overlap

---- Real-time Memory Report at c_bands before calling an iterative solver
          1418 MiB given to the printing process from OS
             0 MiB allocation reported by mallinfo(arena+hblkhd)
        201230 MiB available memory on the node where the printing process lives
------------------
     ethr =  2.69E-07,  avg # of iterations =  9.8

     negative rho (up, down):  6.036E-04 0.000E+00

     add environment contribution to local potential

     total cpu time spent up to now is     3285.0 secs

     total energy              =   -1143.49290648 Ry
     estimated scf accuracy    <       0.00122486 Ry

     total charge of GC-SCF    =      -9.67641165 e
     the Fermi energy          =      -1.46910317 eV
                        (error :       0.06510317 eV)
     electrostatic embedding   =      -8.87267645 Ry
     cavitation energy         =       0.04257005 Ry
     electrolyte free energy   =      -0.19528121 Ry
     correction to one-el term =     332.52940003 Ry

     iteration # 27     ecut=    80.00 Ry     beta= 0.20
     Davidson diagonalization with overlap

---- Real-time Memory Report at c_bands before calling an iterative solver
          1418 MiB given to the printing process from OS
             0 MiB allocation reported by mallinfo(arena+hblkhd)
        201226 MiB available memory on the node where the printing process lives
------------------
     ethr =  2.69E-07,  avg # of iterations = 12.0

     negative rho (up, down):  5.856E-04 0.000E+00

     add environment contribution to local potential

     total cpu time spent up to now is     3379.3 secs

     total energy              =   -1143.44587829 Ry
     estimated scf accuracy    <       0.00089944 Ry

     total charge of GC-SCF    =     -10.25825350 e
     the Fermi energy          =      -1.53535224 eV
                        (error :       0.13135224 eV)
     electrostatic embedding   =      -8.33288040 Ry
     cavitation energy         =       0.04257005 Ry
     electrolyte free energy   =      -0.17550520 Ry
     correction to one-el term =     322.64662735 Ry

     iteration # 28     ecut=    80.00 Ry     beta= 0.20
     Davidson diagonalization with overlap

---- Real-time Memory Report at c_bands before calling an iterative solver
          1418 MiB given to the printing process from OS
             0 MiB allocation reported by mallinfo(arena+hblkhd)
        201226 MiB available memory on the node where the printing process lives
------------------
     ethr =  2.69E-07,  avg # of iterations = 11.2

     negative rho (up, down):  5.761E-04 0.000E+00

     add environment contribution to local potential

     total cpu time spent up to now is     3473.8 secs

     total energy              =   -1143.47068399 Ry
     estimated scf accuracy    <       0.00030809 Ry

     total charge of GC-SCF    =     -10.18290162 e
     the Fermi energy          =      -1.48250862 eV
                        (error :       0.07850862 eV)
     electrostatic embedding   =      -9.23994206 Ry
     cavitation energy         =       0.04257005 Ry
     electrolyte free energy   =      -0.20994849 Ry
     correction to one-el term =     337.45417193 Ry

     iteration # 29     ecut=    80.00 Ry     beta= 0.20
     Davidson diagonalization with overlap

---- Real-time Memory Report at c_bands before calling an iterative solver
          1418 MiB given to the printing process from OS
             0 MiB allocation reported by mallinfo(arena+hblkhd)
        201254 MiB available memory on the node where the printing process lives
------------------
     ethr =  1.29E-07,  avg # of iterations = 14.2

     negative rho (up, down):  5.674E-04 0.000E+00

     add environment contribution to local potential

     total cpu time spent up to now is     3575.8 secs

     total energy              =   -1143.46337585 Ry
     estimated scf accuracy    <       0.00016381 Ry

     total charge of GC-SCF    =     -10.40770548 e
     the Fermi energy          =      -1.51407862 eV
                        (error :       0.11007862 eV)
     electrostatic embedding   =      -9.08890424 Ry
     cavitation energy         =       0.04257005 Ry
     electrolyte free energy   =      -0.20481456 Ry
     correction to one-el term =     334.03393348 Ry

     iteration # 30     ecut=    80.00 Ry     beta= 0.20
     Davidson diagonalization with overlap

---- Real-time Memory Report at c_bands before calling an iterative solver
          1418 MiB given to the printing process from OS
             0 MiB allocation reported by mallinfo(arena+hblkhd)
        201268 MiB available memory on the node where the printing process lives
------------------
     ethr =  6.87E-08,  avg # of iterations = 14.4

     negative rho (up, down):  5.586E-04 0.000E+00

     add environment contribution to local potential

     total cpu time spent up to now is     3688.4 secs

     total energy              =   -1143.46695231 Ry
     estimated scf accuracy    <       0.00011843 Ry

     total charge of GC-SCF    =     -10.57909688 e
     the Fermi energy          =      -1.48734780 eV
                        (error :       0.08334780 eV)
     electrostatic embedding   =      -9.41764730 Ry
     cavitation energy         =       0.04257005 Ry
     electrolyte free energy   =      -0.21930393 Ry
     correction to one-el term =     338.70151093 Ry

     iteration # 31     ecut=    80.00 Ry     beta= 0.20
     Davidson diagonalization with overlap

---- Real-time Memory Report at c_bands before calling an iterative solver
          1418 MiB given to the printing process from OS
             0 MiB allocation reported by mallinfo(arena+hblkhd)
        201170 MiB available memory on the node where the printing process lives
------------------
     ethr =  4.96E-08,  avg # of iterations = 12.8

     negative rho (up, down):  5.482E-04 0.000E+00

     add environment contribution to local potential

     total cpu time spent up to now is     3798.8 secs

     total energy              =   -1143.46916346 Ry
     estimated scf accuracy    <       0.00007148 Ry

     total charge of GC-SCF    =     -10.71151324 e
     the Fermi energy          =      -1.47107701 eV
                        (error :       0.06707701 eV)
     electrostatic embedding   =      -9.63835545 Ry
     cavitation energy         =       0.04257005 Ry
     electrolyte free energy   =      -0.23085302 Ry
     correction to one-el term =     340.92339990 Ry

     iteration # 32     ecut=    80.00 Ry     beta= 0.20
     Davidson diagonalization with overlap

---- Real-time Memory Report at c_bands before calling an iterative solver
          1418 MiB given to the printing process from OS
             0 MiB allocation reported by mallinfo(arena+hblkhd)
        201071 MiB available memory on the node where the printing process lives
------------------
     ethr =  2.99E-08,  avg # of iterations = 13.0

     negative rho (up, down):  5.408E-04 0.000E+00

     add environment contribution to local potential

     total cpu time spent up to now is     3903.9 secs

     total energy              =   -1143.47030448 Ry
     estimated scf accuracy    <       0.00005764 Ry

     total charge of GC-SCF    =     -10.90614871 e
     the Fermi energy          =      -1.45033867 eV
                        (error :       0.04633867 eV)
     electrostatic embedding   =      -9.83916866 Ry
     cavitation energy         =       0.04257005 Ry
     electrolyte free energy   =      -0.24044245 Ry
     correction to one-el term =     343.76716643 Ry

     iteration # 33     ecut=    80.00 Ry     beta= 0.20
     Davidson diagonalization with overlap

---- Real-time Memory Report at c_bands before calling an iterative solver
          1418 MiB given to the printing process from OS
             0 MiB allocation reported by mallinfo(arena+hblkhd)
        201156 MiB available memory on the node where the printing process lives
------------------
     ethr =  2.41E-08,  avg # of iterations = 12.8

     negative rho (up, down):  5.348E-04 0.000E+00

     add environment contribution to local potential

     total cpu time spent up to now is     4015.9 secs

     total energy              =   -1143.47129448 Ry
     estimated scf accuracy    <       0.00003338 Ry

     total charge of GC-SCF    =     -10.96089959 e
     the Fermi energy          =      -1.42632338 eV
                        (error :       0.02232338 eV)
     electrostatic embedding   =     -10.12311461 Ry
     cavitation energy         =       0.04257005 Ry
     electrolyte free energy   =      -0.25535361 Ry
     correction to one-el term =     347.22381209 Ry

     iteration # 34     ecut=    80.00 Ry     beta= 0.20
     Davidson diagonalization with overlap

---- Real-time Memory Report at c_bands before calling an iterative solver
          1418 MiB given to the printing process from OS
             0 MiB allocation reported by mallinfo(arena+hblkhd)
        201013 MiB available memory on the node where the printing process lives
------------------
     ethr =  1.40E-08,  avg # of iterations = 14.0

     negative rho (up, down):  5.281E-04 0.000E+00

     add environment contribution to local potential

     total cpu time spent up to now is     4132.9 secs

     total energy              =   -1143.47179450 Ry
     estimated scf accuracy    <       0.00001577 Ry

     total charge of GC-SCF    =     -11.07904252 e
     the Fermi energy          =      -1.41917572 eV
                        (error :       0.01517572 eV)
     electrostatic embedding   =     -10.18653341 Ry
     cavitation energy         =       0.04257005 Ry
     electrolyte free energy   =      -0.25975847 Ry
     correction to one-el term =     347.78589832 Ry

     iteration # 35     ecut=    80.00 Ry     beta= 0.20
     Davidson diagonalization with overlap

---- Real-time Memory Report at c_bands before calling an iterative solver
          1418 MiB given to the printing process from OS
             0 MiB allocation reported by mallinfo(arena+hblkhd)
        201126 MiB available memory on the node where the printing process lives
------------------
     ethr =  6.60E-09,  avg # of iterations = 14.9

     negative rho (up, down):  5.229E-04 0.000E+00

     add environment contribution to local potential

     total cpu time spent up to now is     4255.3 secs

     total energy              =   -1143.47173286 Ry
     estimated scf accuracy    <       0.00000799 Ry

     total charge of GC-SCF    =     -11.03708227 e
     the Fermi energy          =      -1.40418953 eV
                        (error :       0.00018953 eV)
     electrostatic embedding   =     -10.36202974 Ry
     cavitation energy         =       0.04257005 Ry
     electrolyte free energy   =      -0.26983486 Ry
     correction to one-el term =     349.92648859 Ry

     iteration # 36     ecut=    80.00 Ry     beta= 0.20
     Davidson diagonalization with overlap

---- Real-time Memory Report at c_bands before calling an iterative solver
          1418 MiB given to the printing process from OS
             0 MiB allocation reported by mallinfo(arena+hblkhd)
        201015 MiB available memory on the node where the printing process lives
------------------
     ethr =  3.34E-09,  avg # of iterations = 12.6

     negative rho (up, down):  5.205E-04 0.000E+00

     add environment contribution to local potential

     total cpu time spent up to now is     4367.3 secs

     total energy              =   -1143.47178022 Ry
     estimated scf accuracy    <       0.00000365 Ry

     total charge of GC-SCF    =     -11.09980426 e
     the Fermi energy          =      -1.41585032 eV
                        (error :       0.01185032 eV)
     electrostatic embedding   =     -10.28029890 Ry
     cavitation energy         =       0.04257005 Ry
     electrolyte free energy   =      -0.26605798 Ry
     correction to one-el term =     348.36828432 Ry

     iteration # 37     ecut=    80.00 Ry     beta= 0.20
     Davidson diagonalization with overlap

---- Real-time Memory Report at c_bands before calling an iterative solver
          1418 MiB given to the printing process from OS
             0 MiB allocation reported by mallinfo(arena+hblkhd)
        201062 MiB available memory on the node where the printing process lives
------------------
     ethr =  1.53E-09,  avg # of iterations = 13.4

     negative rho (up, down):  5.177E-04 0.000E+00

     add environment contribution to local potential

     total cpu time spent up to now is     4481.2 secs

     total energy              =   -1143.47178314 Ry
     estimated scf accuracy    <       0.00000240 Ry

     total charge of GC-SCF    =     -11.15607545 e
     the Fermi energy          =      -1.40524583 eV
                        (error :       0.00124583 eV)
     electrostatic embedding   =     -10.37671365 Ry
     cavitation energy         =       0.04257005 Ry
     electrolyte free energy   =      -0.27160382 Ry
     correction to one-el term =     349.65250946 Ry

     iteration # 38     ecut=    80.00 Ry     beta= 0.20
     Davidson diagonalization with overlap

---- Real-time Memory Report at c_bands before calling an iterative solver
          1418 MiB given to the printing process from OS
             0 MiB allocation reported by mallinfo(arena+hblkhd)
        201098 MiB available memory on the node where the printing process lives
------------------
     ethr =  1.00E-09,  avg # of iterations = 20.8

     negative rho (up, down):  5.185E-04 0.000E+00

     add environment contribution to local potential

     total cpu time spent up to now is     4613.9 secs

     total energy              =   -1143.47147402 Ry
     estimated scf accuracy    <       0.00000234 Ry

     total charge of GC-SCF    =     -11.12724750 e
     the Fermi energy          =      -1.39833857 eV
                        (error :       0.00566143 eV)
     electrostatic embedding   =     -10.45988260 Ry
     cavitation energy         =       0.04257005 Ry
     electrolyte free energy   =      -0.27676797 Ry
     correction to one-el term =     350.63967152 Ry

     iteration # 39     ecut=    80.00 Ry     beta= 0.20
     Davidson diagonalization with overlap

---- Real-time Memory Report at c_bands before calling an iterative solver
          1418 MiB given to the printing process from OS
             0 MiB allocation reported by mallinfo(arena+hblkhd)
        201041 MiB available memory on the node where the printing process lives
------------------
     ethr =  9.80E-10,  avg # of iterations = 10.7

     negative rho (up, down):  5.181E-04 0.000E+00

     add environment contribution to local potential

     total cpu time spent up to now is     4708.7 secs

     total energy              =   -1143.47158887 Ry
     estimated scf accuracy    <       0.00000068 Ry

     total charge of GC-SCF    =     -11.13825026 e
     the Fermi energy          =      -1.40136039 eV
                        (error :       0.00263961 eV)
     electrostatic embedding   =     -10.41693887 Ry
     cavitation energy         =       0.04257005 Ry
     electrolyte free energy   =      -0.27409856 Ry
     correction to one-el term =     350.12462238 Ry

     iteration # 40     ecut=    80.00 Ry     beta= 0.20
     Davidson diagonalization with overlap

---- Real-time Memory Report at c_bands before calling an iterative solver
          1418 MiB given to the printing process from OS
             0 MiB allocation reported by mallinfo(arena+hblkhd)
        201142 MiB available memory on the node where the printing process lives
------------------
     ethr =  2.85E-10,  avg # of iterations = 12.7

     negative rho (up, down):  5.187E-04 0.000E+00

     add environment contribution to local potential

     total cpu time spent up to now is     4822.2 secs

     total energy              =   -1143.47154611 Ry
     estimated scf accuracy    <       0.00000042 Ry

     total charge of GC-SCF    =     -11.12385743 e
     the Fermi energy          =      -1.39991000 eV
                        (error :       0.00409000 eV)
     electrostatic embedding   =     -10.43315195 Ry
     cavitation energy         =       0.04257005 Ry
     electrolyte free energy   =      -0.27511051 Ry
     correction to one-el term =     350.29228350 Ry

     iteration # 41     ecut=    80.00 Ry     beta= 0.20
     Davidson diagonalization with overlap

---- Real-time Memory Report at c_bands before calling an iterative solver
          1418 MiB given to the printing process from OS
             0 MiB allocation reported by mallinfo(arena+hblkhd)
        201071 MiB available memory on the node where the printing process lives
------------------
     ethr =  1.76E-10,  avg # of iterations = 12.0

     negative rho (up, down):  5.189E-04 0.000E+00

     add environment contribution to local potential

     total cpu time spent up to now is     4926.2 secs

     total energy              =   -1143.47158541 Ry
     estimated scf accuracy    <       0.00000034 Ry

     total charge of GC-SCF    =     -11.11996665 e
     the Fermi energy          =      -1.40201996 eV
                        (error :       0.00198004 eV)
     electrostatic embedding   =     -10.41140718 Ry
     cavitation energy         =       0.04257005 Ry
     electrolyte free energy   =      -0.27378407 Ry
     correction to one-el term =     350.01355952 Ry

     iteration # 42     ecut=    80.00 Ry     beta= 0.20
     Davidson diagonalization with overlap

---- Real-time Memory Report at c_bands before calling an iterative solver
          1418 MiB given to the printing process from OS
             0 MiB allocation reported by mallinfo(arena+hblkhd)
        201093 MiB available memory on the node where the printing process lives
------------------
     ethr =  1.41E-10,  avg # of iterations = 12.1

     negative rho (up, down):  5.193E-04 0.000E+00

     add environment contribution to local potential

     total cpu time spent up to now is     5029.3 secs

     total energy              =   -1143.47160162 Ry
     estimated scf accuracy    <       0.00000014 Ry

     total charge of GC-SCF    =     -11.11630512 e
     the Fermi energy          =      -1.40287127 eV
                        (error :       0.00112873 eV)
     electrostatic embedding   =     -10.40499941 Ry
     cavitation energy         =       0.04257005 Ry
     electrolyte free energy   =      -0.27342363 Ry
     correction to one-el term =     349.90458234 Ry

     iteration # 43     ecut=    80.00 Ry     beta= 0.20
     Davidson diagonalization with overlap

---- Real-time Memory Report at c_bands before calling an iterative solver
          1418 MiB given to the printing process from OS
             0 MiB allocation reported by mallinfo(arena+hblkhd)
        201164 MiB available memory on the node where the printing process lives
------------------
     ethr =  5.72E-11,  avg # of iterations = 13.2

     negative rho (up, down):  5.195E-04 0.000E+00

     add environment contribution to local potential

     total cpu time spent up to now is     5137.7 secs

     total energy              =   -1143.47160977 Ry
     estimated scf accuracy    <       0.00000007 Ry

     total charge of GC-SCF    =     -11.11308840 e
     the Fermi energy          =      -1.40334707 eV
                        (error :       0.00065293 eV)
     electrostatic embedding   =     -10.40008694 Ry
     cavitation energy         =       0.04257005 Ry
     electrolyte free energy   =      -0.27309261 Ry
     correction to one-el term =     349.85877020 Ry

     iteration # 44     ecut=    80.00 Ry     beta= 0.20
     Davidson diagonalization with overlap

---- Real-time Memory Report at c_bands before calling an iterative solver
          1418 MiB given to the printing process from OS
             0 MiB allocation reported by mallinfo(arena+hblkhd)
        201112 MiB available memory on the node where the printing process lives
------------------
     ethr =  3.12E-11,  avg # of iterations = 13.4

     negative rho (up, down):  5.193E-04 0.000E+00

     add environment contribution to local potential

     total cpu time spent up to now is     5245.8 secs

     total energy              =   -1143.47161653 Ry
     estimated scf accuracy    <       0.00000005 Ry

     total charge of GC-SCF    =     -11.11358542 e
     the Fermi energy          =      -1.40382003 eV
                        (error :       0.00017997 eV)
     electrostatic embedding   =     -10.39586664 Ry
     cavitation energy         =       0.04257005 Ry
     electrolyte free energy   =      -0.27280238 Ry
     correction to one-el term =     349.82067878 Ry

     iteration # 45     ecut=    80.00 Ry     beta= 0.20
     Davidson diagonalization with overlap

---- Real-time Memory Report at c_bands before calling an iterative solver
          1418 MiB given to the printing process from OS
             0 MiB allocation reported by mallinfo(arena+hblkhd)
        201164 MiB available memory on the node where the printing process lives
------------------
     ethr =  1.88E-11,  avg # of iterations = 11.2

     negative rho (up, down):  5.192E-04 0.000E+00

     add environment contribution to local potential

     total cpu time spent up to now is     5345.4 secs

     total energy              =   -1143.47161510 Ry
     estimated scf accuracy    <       0.00000002 Ry

     total charge of GC-SCF    =     -11.11224294 e
     the Fermi energy          =      -1.40367276 eV
                        (error :       0.00032724 eV)
     electrostatic embedding   =     -10.39654031 Ry
     cavitation energy         =       0.04257005 Ry
     electrolyte free energy   =      -0.27284761 Ry
     correction to one-el term =     349.82721827 Ry

     iteration # 46     ecut=    80.00 Ry     beta= 0.20
     Davidson diagonalization with overlap

---- Real-time Memory Report at c_bands before calling an iterative solver
          1418 MiB given to the printing process from OS
             0 MiB allocation reported by mallinfo(arena+hblkhd)
        201166 MiB available memory on the node where the printing process lives
------------------
     ethr =  8.17E-12,  avg # of iterations = 21.1

     negative rho (up, down):  5.192E-04 0.000E+00

     add environment contribution to local potential

     total cpu time spent up to now is     5475.7 secs

     total energy              =   -1143.47161971 Ry
     estimated scf accuracy    <          4.8E-09 Ry

     total charge of GC-SCF    =     -11.11162542 e
     the Fermi energy          =      -1.40404489 eV
                        (error :       0.00004489 eV)
     electrostatic embedding   =     -10.39375632 Ry
     cavitation energy         =       0.04257005 Ry
     electrolyte free energy   =      -0.27272148 Ry
     correction to one-el term =     349.77165815 Ry

     iteration # 47     ecut=    80.00 Ry     beta= 0.20
     Davidson diagonalization with overlap

---- Real-time Memory Report at c_bands before calling an iterative solver
          1418 MiB given to the printing process from OS
             0 MiB allocation reported by mallinfo(arena+hblkhd)
        200877 MiB available memory on the node where the printing process lives
------------------
     ethr =  2.02E-12,  avg # of iterations = 12.5

     negative rho (up, down):  5.191E-04 0.000E+00

     add environment contribution to local potential

     total cpu time spent up to now is     5570.6 secs

     total energy              =   -1143.47162116 Ry
     estimated scf accuracy    <          3.7E-09 Ry

     total charge of GC-SCF    =     -11.11145064 e
     the Fermi energy          =      -1.40414199 eV
                        (error :       0.00014199 eV)
     electrostatic embedding   =     -10.39270759 Ry
     cavitation energy         =       0.04257005 Ry
     electrolyte free energy   =      -0.27266492 Ry
     correction to one-el term =     349.75594621 Ry

     iteration # 48     ecut=    80.00 Ry     beta= 0.20
     Davidson diagonalization with overlap

---- Real-time Memory Report at c_bands before calling an iterative solver
          1418 MiB given to the printing process from OS
             0 MiB allocation reported by mallinfo(arena+hblkhd)
        201047 MiB available memory on the node where the printing process lives
------------------
     ethr =  1.53E-12,  avg # of iterations = 12.4

     negative rho (up, down):  5.191E-04 0.000E+00

     add environment contribution to local potential

     total cpu time spent up to now is     5673.4 secs

     total energy              =   -1143.47162176 Ry
     estimated scf accuracy    <          1.9E-09 Ry

     total charge of GC-SCF    =     -11.11272140 e
     the Fermi energy          =      -1.40418095 eV
                        (error :       0.00018095 eV)
     electrostatic embedding   =     -10.39225089 Ry
     cavitation energy         =       0.04257005 Ry
     electrolyte free energy   =      -0.27264826 Ry
     correction to one-el term =     349.74626357 Ry

     iteration # 49     ecut=    80.00 Ry     beta= 0.20
     Davidson diagonalization with overlap

---- Real-time Memory Report at c_bands before calling an iterative solver
          1418 MiB given to the printing process from OS
             0 MiB allocation reported by mallinfo(arena+hblkhd)
        201120 MiB available memory on the node where the printing process lives
------------------
     ethr =  8.12E-13,  avg # of iterations = 22.4

     negative rho (up, down):  5.191E-04 0.000E+00

     add environment contribution to local potential

     total cpu time spent up to now is     5814.5 secs

     total energy              =   -1143.47161908 Ry
     estimated scf accuracy    <          1.0E-09 Ry

     total charge of GC-SCF    =     -11.11314717 e
     the Fermi energy          =      -1.40400838 eV
                        (error :       0.00000838 eV)
     electrostatic embedding   =     -10.39410366 Ry
     cavitation energy         =       0.04257005 Ry
     electrolyte free energy   =      -0.27276338 Ry
     correction to one-el term =     349.76875531 Ry

     iteration # 50     ecut=    80.00 Ry     beta= 0.20
     Davidson diagonalization with overlap

---- Real-time Memory Report at c_bands before calling an iterative solver
          1418 MiB given to the printing process from OS
             0 MiB allocation reported by mallinfo(arena+hblkhd)
        200944 MiB available memory on the node where the printing process lives
------------------
     ethr =  4.29E-13,  avg # of iterations = 13.3

     negative rho (up, down):  5.191E-04 0.000E+00

     add environment contribution to local potential

     total cpu time spent up to now is     5917.4 secs

     total energy              =   -1143.47161798 Ry
     estimated scf accuracy    <          7.5E-10 Ry

     total charge of GC-SCF    =     -11.11307370 e
     the Fermi energy          =      -1.40392973 eV
                        (error :       0.00007027 eV)
     electrostatic embedding   =     -10.39475658 Ry
     cavitation energy         =       0.04257005 Ry
     electrolyte free energy   =      -0.27280221 Ry
     correction to one-el term =     349.77769125 Ry

     iteration # 51     ecut=    80.00 Ry     beta= 0.20
     Davidson diagonalization with overlap

---- Real-time Memory Report at c_bands before calling an iterative solver
          1418 MiB given to the printing process from OS
             0 MiB allocation reported by mallinfo(arena+hblkhd)
        201102 MiB available memory on the node where the printing process lives
------------------
     ethr =  3.15E-13,  avg # of iterations = 11.5

[...]
     atom   18 type  1   force =     0.00000000    0.00000000    0.00000000
     atom   19 type  1   force =     0.00000000    0.00000000    0.00000000
     atom   20 type  1   force =     0.00000000    0.00000000    0.00000000
     atom   21 type  1   force =     0.00000000    0.00000000    0.00000000
     atom   22 type  1   force =     0.00000000    0.00000000    0.00000000
     atom   23 type  1   force =     0.00000000    0.00000000    0.00000000
     atom   24 type  1   force =     0.00000000    0.00000000    0.00000000
     atom   25 type  1   force =     0.00000000    0.00000000    0.00000000
     atom   26 type  1   force =     0.00000000    0.00000000    0.00000000
     atom   27 type  1   force =     0.00000000    0.00000000    0.00000000
     atom   28 type  1   force =     0.00000000    0.00000000    0.00000000
     atom   29 type  1   force =     0.00000000    0.00000000    0.00000000
     atom   30 type  1   force =     0.00000000    0.00000000    0.00000000
     atom   31 type  1   force =     0.00000000    0.00000000    0.00000000
     atom   32 type  1   force =     0.00000000    0.00000000    0.00000000
     atom   33 type  1   force =     0.00000000    0.00000000    0.00000000
     atom   34 type  1   force =     0.00000000    0.00000000    0.00000000
     atom   35 type  1   force =     0.00000000    0.00000000    0.00000000
     atom   36 type  1   force =     0.00000000    0.00000000    0.00000000
     atom   37 type  1   force =     0.00000000    0.00000000    0.00000000
     atom   38 type  1   force =     0.00000000    0.00000000    0.00000000
     atom   39 type  1   force =     0.00000000    0.00000000    0.00000000
     atom   40 type  1   force =     0.00000000    0.00000000    0.00000000
     atom   41 type  1   force =     0.00000000    0.00000000    0.00000000
     atom   42 type  1   force =     0.00000000    0.00000000    0.00000000
     atom   43 type  1   force =     0.00000000    0.00000000    0.00000000
     atom   44 type  1   force =     0.00000000    0.00000000    0.00000000
     atom   45 type  1   force =     0.00000000    0.00000000    0.00000000
     atom   46 type  1   force =     0.00000000    0.00000000    0.00000000
     atom   47 type  1   force =     0.00000000    0.00000000    0.00000000
     atom   48 type  1   force =     0.00000000    0.00000000    0.00000000
     atom   49 type  1   force =     0.00000000    0.00000000    0.00000000
     atom   50 type  1   force =     0.00000000    0.00000000    0.00000000
     atom   51 type  1   force =     0.00000000    0.00000000    0.00000000
     atom   52 type  1   force =     0.00000000    0.00000000    0.00000000
     atom   53 type  1   force =     0.00000000    0.00000000    0.00000000
     atom   54 type  1   force =     0.00000000    0.00000000    0.00000000
     atom   55 type  1   force =     0.00000000    0.00000000    0.00000000
     atom   56 type  1   force =     0.00000000    0.00000000    0.00000000
     atom   57 type  1   force =     0.00000000    0.00000000    0.00000000
     atom   58 type  1   force =     0.00000000    0.00000000    0.00000000
     atom   59 type  1   force =     0.00000000    0.00000000    0.00000000
     atom   60 type  1   force =     0.00000000    0.00000000    0.00000000
     atom   61 type  1   force =     0.00000000    0.00000000    0.00000000
     atom   62 type  1   force =     0.00000000    0.00000000    0.00000000
     atom   63 type  1   force =     0.00000000    0.00000000    0.00000000
     atom   64 type  1   force =     0.00000000    0.00000000    0.00000000
     atom   65 type  1   force =     0.00000000    0.00000000    0.00000000
     atom   66 type  1   force =     0.00000000    0.00000000    0.00000000
     atom   67 type  1   force =     0.00000000    0.00000000    0.00000000
     atom   68 type  1   force =     0.00000000    0.00000000    0.00000000
     atom   69 type  1   force =     0.00000000    0.00000000    0.00000000
     atom   70 type  1   force =     0.00000000    0.00000000    0.00000000
     atom   71 type  1   force =     0.00000000    0.00000000    0.00000000
     atom   72 type  1   force =     0.00000000    0.00000000    0.00000000
     atom   73 type  1   force =     0.00000000    0.00000000    0.00000000
     atom   74 type  1   force =     0.00000000    0.00000000    0.00000000
     atom   75 type  1   force =     0.00000000    0.00000000    0.00000000
     atom   76 type  1   force =     0.00000000    0.00000000    0.00000000
     The Hubbard contrib.    to forces
     atom    1 type  1   force =     0.00000000    0.00000000    0.00000000
     atom    2 type  1   force =     0.00000000    0.00000000    0.00000000
     atom    3 type  1   force =     0.00000000    0.00000000    0.00000000
     atom    4 type  1   force =     0.00000000    0.00000000    0.00000000
     atom    5 type  1   force =     0.00000000    0.00000000    0.00000000
     atom    6 type  1   force =     0.00000000    0.00000000    0.00000000
     atom    7 type  1   force =     0.00000000    0.00000000    0.00000000
     atom    8 type  1   force =     0.00000000    0.00000000    0.00000000
     atom    9 type  1   force =     0.00000000    0.00000000    0.00000000
     atom   10 type  1   force =     0.00000000    0.00000000    0.00000000
     atom   11 type  1   force =     0.00000000    0.00000000    0.00000000
     atom   12 type  1   force =     0.00000000    0.00000000    0.00000000
     atom   13 type  1   force =     0.00000000    0.00000000    0.00000000
     atom   14 type  1   force =     0.00000000    0.00000000    0.00000000
     atom   15 type  1   force =     0.00000000    0.00000000    0.00000000
     atom   16 type  1   force =     0.00000000    0.00000000    0.00000000
     atom   17 type  1   force =     0.00000000    0.00000000    0.00000000
     atom   18 type  1   force =     0.00000000    0.00000000    0.00000000
     atom   19 type  1   force =     0.00000000    0.00000000    0.00000000
     atom   20 type  1   force =     0.00000000    0.00000000    0.00000000
     atom   21 type  1   force =     0.00000000    0.00000000    0.00000000
     atom   22 type  1   force =     0.00000000    0.00000000    0.00000000
     atom   23 type  1   force =     0.00000000    0.00000000    0.00000000
     atom   24 type  1   force =     0.00000000    0.00000000    0.00000000
     atom   25 type  1   force =     0.00000000    0.00000000    0.00000000
     atom   26 type  1   force =     0.00000000    0.00000000    0.00000000
     atom   27 type  1   force =     0.00000000    0.00000000    0.00000000
     atom   28 type  1   force =     0.00000000    0.00000000    0.00000000
     atom   29 type  1   force =     0.00000000    0.00000000    0.00000000
     atom   30 type  1   force =     0.00000000    0.00000000    0.00000000
     atom   31 type  1   force =     0.00000000    0.00000000    0.00000000
     atom   32 type  1   force =     0.00000000    0.00000000    0.00000000
     atom   33 type  1   force =     0.00000000    0.00000000    0.00000000
     atom   34 type  1   force =     0.00000000    0.00000000    0.00000000
     atom   35 type  1   force =     0.00000000    0.00000000    0.00000000
     atom   36 type  1   force =     0.00000000    0.00000000    0.00000000
     atom   37 type  1   force =     0.00000000    0.00000000    0.00000000
     atom   38 type  1   force =     0.00000000    0.00000000    0.00000000
     atom   39 type  1   force =     0.00000000    0.00000000    0.00000000
     atom   40 type  1   force =     0.00000000    0.00000000    0.00000000
     atom   41 type  1   force =     0.00000000    0.00000000    0.00000000
     atom   42 type  1   force =     0.00000000    0.00000000    0.00000000
     atom   43 type  1   force =     0.00000000    0.00000000    0.00000000
     atom   44 type  1   force =     0.00000000    0.00000000    0.00000000
     atom   45 type  1   force =     0.00000000    0.00000000    0.00000000
     atom   46 type  1   force =     0.00000000    0.00000000    0.00000000
     atom   47 type  1   force =     0.00000000    0.00000000    0.00000000
     atom   48 type  1   force =     0.00000000    0.00000000    0.00000000
     atom   49 type  1   force =     0.00000000    0.00000000    0.00000000
     atom   50 type  1   force =     0.00000000    0.00000000    0.00000000
     atom   51 type  1   force =     0.00000000    0.00000000    0.00000000
     atom   52 type  1   force =     0.00000000    0.00000000    0.00000000
     atom   53 type  1   force =     0.00000000    0.00000000    0.00000000
     atom   54 type  1   force =     0.00000000    0.00000000    0.00000000
     atom   55 type  1   force =     0.00000000    0.00000000    0.00000000
     atom   56 type  1   force =     0.00000000    0.00000000    0.00000000
     atom   57 type  1   force =     0.00000000    0.00000000    0.00000000
     atom   58 type  1   force =     0.00000000    0.00000000    0.00000000
     atom   59 type  1   force =     0.00000000    0.00000000    0.00000000
     atom   60 type  1   force =     0.00000000    0.00000000    0.00000000
     atom   61 type  1   force =     0.00000000    0.00000000    0.00000000
     atom   62 type  1   force =     0.00000000    0.00000000    0.00000000
     atom   63 type  1   force =     0.00000000    0.00000000    0.00000000
     atom   64 type  1   force =     0.00000000    0.00000000    0.00000000
     atom   65 type  1   force =     0.00000000    0.00000000    0.00000000
     atom   66 type  1   force =     0.00000000    0.00000000    0.00000000
     atom   67 type  1   force =     0.00000000    0.00000000    0.00000000
     atom   68 type  1   force =     0.00000000    0.00000000    0.00000000
     atom   69 type  1   force =     0.00000000    0.00000000    0.00000000
     atom   70 type  1   force =     0.00000000    0.00000000    0.00000000
     atom   71 type  1   force =     0.00000000    0.00000000    0.00000000
     atom   72 type  1   force =     0.00000000    0.00000000    0.00000000
     atom   73 type  1   force =     0.00000000    0.00000000    0.00000000
     atom   74 type  1   force =     0.00000000    0.00000000    0.00000000
     atom   75 type  1   force =     0.00000000    0.00000000    0.00000000
     atom   76 type  1   force =     0.00000000    0.00000000    0.00000000
     The SCF correction term to forces
     atom    1 type  1   force =     0.00000000   -0.00000001    0.00000003
     atom    2 type  1   force =    -0.00000000    0.00000001   -0.00000001
     atom    3 type  1   force =     0.00000000   -0.00000000   -0.00000002
     atom    4 type  1   force =     0.00000000    0.00000000   -0.00000002
     atom    5 type  1   force =    -0.00000000   -0.00000000   -0.00000003
     atom    6 type  1   force =    -0.00000000   -0.00000000   -0.00000004
     atom    7 type  1   force =    -0.00000000   -0.00000000   -0.00000004
     atom    8 type  1   force =     0.00000000   -0.00000000   -0.00000002
     atom    9 type  1   force =    -0.00000000    0.00000001   -0.00000002
     atom   10 type  1   force =     0.00000000   -0.00000001   -0.00000001
     atom   11 type  1   force =     0.00000000   -0.00000000   -0.00000000
     atom   12 type  1   force =    -0.00000000    0.00000000    0.00000001
     atom   13 type  1   force =    -0.00000000   -0.00000001    0.00000001
     atom   14 type  1   force =    -0.00000000   -0.00000000    0.00000002
     atom   15 type  1   force =     0.00000000    0.00000000    0.00000003
     atom   16 type  1   force =     0.00000000    0.00000001    0.00000003
     atom   17 type  1   force =    -0.00000000   -0.00000001    0.00000003
     atom   18 type  1   force =    -0.00000000    0.00000000    0.00000001
     atom   19 type  1   force =     0.00000000    0.00000001    0.00000001
     atom   20 type  1   force =    -0.00000000    0.00000000   -0.00000002
     atom   21 type  1   force =     0.00000000   -0.00000000   -0.00000003
     atom   22 type  1   force =     0.00000000    0.00000000   -0.00000004
     atom   23 type  1   force =     0.00000000   -0.00000001   -0.00000003
     atom   24 type  1   force =     0.00000000    0.00000001   -0.00000002
     atom   25 type  1   force =     0.00000000    0.00000000   -0.00000002
     atom   26 type  1   force =    -0.00000000   -0.00000000   -0.00000001
     atom   27 type  1   force =    -0.00000000    0.00000001    0.00000000
     atom   28 type  1   force =     0.00000000    0.00000000    0.00000001
     atom   29 type  1   force =     0.00000000   -0.00000000    0.00000002
     atom   30 type  1   force =     0.00000000   -0.00000000    0.00000003
     atom   31 type  1   force =    -0.00000000    0.00000001    0.00000003
     atom   32 type  1   force =    -0.00000000    0.00000000    0.00000003
     atom   33 type  1   force =    -0.00000000   -0.00000000    0.00000002
     atom   34 type  1   force =    -0.00000000    0.00000000    0.00000003
     atom   35 type  1   force =     0.00000000   -0.00000001    0.00000001
     atom   36 type  1   force =    -0.00000000    0.00000000   -0.00000003
     atom   37 type  1   force =    -0.00000000   -0.00000000   -0.00000001
     atom   38 type  1   force =     0.00000000   -0.00000000   -0.00000001
     atom   39 type  1   force =    -0.00000000   -0.00000001    0.00000003
     atom   40 type  1   force =    -0.00000000    0.00000001   -0.00000001
     atom   41 type  1   force =     0.00000000    0.00000000   -0.00000002
     atom   42 type  1   force =     0.00000000    0.00000000   -0.00000002
     atom   43 type  1   force =     0.00000000   -0.00000000   -0.00000003
     atom   44 type  1   force =     0.00000000   -0.00000000   -0.00000004
     atom   45 type  1   force =    -0.00000000   -0.00000000   -0.00000004
     atom   46 type  1   force =    -0.00000000   -0.00000000   -0.00000002
     atom   47 type  1   force =    -0.00000000    0.00000001   -0.00000002
     atom   48 type  1   force =     0.00000000   -0.00000001   -0.00000001
     atom   49 type  1   force =     0.00000000   -0.00000000   -0.00000000
     atom   50 type  1   force =    -0.00000000    0.00000000    0.00000001
     atom   51 type  1   force =     0.00000000   -0.00000000    0.00000001
     atom   52 type  1   force =    -0.00000000   -0.00000000    0.00000002
     atom   53 type  1   force =     0.00000000    0.00000000    0.00000003
     atom   54 type  1   force =     0.00000000    0.00000001    0.00000003
     atom   55 type  1   force =    -0.00000000   -0.00000001    0.00000003
     atom   56 type  1   force =     0.00000000    0.00000000    0.00000001
     atom   57 type  1   force =     0.00000000    0.00000001    0.00000001
     atom   58 type  1   force =     0.00000000    0.00000000   -0.00000002
     atom   59 type  1   force =    -0.00000000   -0.00000000   -0.00000003
     atom   60 type  1   force =    -0.00000000    0.00000000   -0.00000004
     atom   61 type  1   force =     0.00000000   -0.00000000   -0.00000003
     atom   62 type  1   force =    -0.00000000    0.00000001   -0.00000002
     atom   63 type  1   force =     0.00000000    0.00000000   -0.00000002
     atom   64 type  1   force =    -0.00000000   -0.00000000   -0.00000001
     atom   65 type  1   force =    -0.00000000    0.00000001    0.00000000
     atom   66 type  1   force =     0.00000000    0.00000000    0.00000001
     atom   67 type  1   force =    -0.00000000   -0.00000000    0.00000002
     atom   68 type  1   force =     0.00000000   -0.00000000    0.00000003
     atom   69 type  1   force =     0.00000000    0.00000001    0.00000003
     atom   70 type  1   force =     0.00000000    0.00000000    0.00000003
     atom   71 type  1   force =    -0.00000000   -0.00000000    0.00000002
     atom   72 type  1   force =    -0.00000000    0.00000000    0.00000003
     atom   73 type  1   force =     0.00000000   -0.00000001    0.00000001
     atom   74 type  1   force =    -0.00000000    0.00000000   -0.00000003
     atom   75 type  1   force =    -0.00000000   -0.00000000   -0.00000001
     atom   76 type  1   force =     0.00000000   -0.00000000   -0.00000001

     Total force =     0.004656     Total SCF correction =     0.000000

     Writing all to output data dir ./Li/Lithium.save/ :
     XML data file
     init_run     :     39.45s CPU     51.37s WALL (       1 calls)
     electrons    :   5556.78s CPU   7183.67s WALL (       1 calls)
     forces       :    156.05s CPU    161.87s WALL (       1 calls)

     Called by init_run:
     wfcinit      :      7.69s CPU     10.72s WALL (       1 calls)
     wfcinit:wfcr :      7.07s CPU     10.08s WALL (      11 calls)
     potinit      :      1.22s CPU      1.32s WALL (       1 calls)
     hinit0       :     13.80s CPU     22.13s WALL (       1 calls)

     Called by electrons:
     c_bands      :   3964.27s CPU   5293.37s WALL (      70 calls)
     sum_band     :    246.00s CPU    348.00s WALL (      70 calls)
     v_of_rho     :     10.87s CPU     12.45s WALL (      71 calls)
     v_h          :      0.85s CPU      1.03s WALL (      71 calls)
     v_xc         :     10.02s CPU     11.40s WALL (      71 calls)
     newd         :      4.62s CPU      6.54s WALL (      71 calls)
     PAW_pot      :      0.82s CPU      1.01s WALL (      71 calls)
     mix_rho      :     32.68s CPU     38.57s WALL (      70 calls)

     Called by c_bands:
     init_us_2    :     47.93s CPU     48.22s WALL (    1562 calls)
     cegterg      :   3740.08s CPU   4756.73s WALL (     935 calls)

     Called by sum_band:
     sum_band:wei :      0.18s CPU      0.22s WALL (      70 calls)
     sum_band:loo :    238.15s CPU    335.39s WALL (      70 calls)
     sum_band:buf :      5.29s CPU      5.36s WALL (     770 calls)
     sum_band:ini :     23.83s CPU     23.92s WALL (     770 calls)
     sum_band:cal :     50.19s CPU     53.45s WALL (     770 calls)
     sum_band:bec :      0.45s CPU      0.55s WALL (     770 calls)
     addusdens    :      5.63s CPU      7.87s WALL (      70 calls)
                                        0.00s GPU  (      70 calls)
     addusd:skk   :      0.70s CPU      2.40s WALL (      70 calls)
                                        0.00s GPU  (      70 calls)

     Called by *egterg:
     cdiaghg      :   1033.11s CPU   1204.63s WALL (   11373 calls)
     cegterg:over :    308.72s CPU    336.70s WALL (   10502 calls)
     cegterg:upda :    244.72s CPU    257.53s WALL (   10502 calls)
     cegterg:last :     94.18s CPU    100.55s WALL (    1113 calls)
     cdiaghg:chol :     49.83s CPU     95.48s WALL (   11373 calls)
     cdiaghg:inve :     24.91s CPU     26.82s WALL (   11373 calls)
     cdiaghg:para :    283.94s CPU    351.40s WALL (   22746 calls)
     h_psi        :   1772.25s CPU   2554.43s WALL (   11448 calls)
     s_psi        :    232.80s CPU    234.41s WALL (   11448 calls)
     g_psi        :      4.84s CPU      5.09s WALL (   10502 calls)

     Called by h_psi:
     h_psi:calbec :    270.50s CPU    292.34s WALL (   11448 calls)
     vloc_psi     :   1261.91s CPU   2011.92s WALL (   11448 calls)
                                        0.00s GPU  (   11448 calls)
     add_vuspsi   :    228.75s CPU    229.82s WALL (   11448 calls)

     General routines
     calbec       :    323.40s CPU    348.66s WALL (   12262 calls)
     fft          :     11.61s CPU     20.90s WALL (     923 calls)
     ffts         :     16.01s CPU     19.75s WALL (    8628 calls)
     fftw         :   1368.05s CPU   2183.96s WALL ( 1198422 calls)
     interpolate  :      1.76s CPU      1.93s WALL (      71 calls)

     Parallel routines

     PAW routines
     PAW_pot      :      0.82s CPU      1.01s WALL (      71 calls)

     Environ routines

     PWSCF        :      1h35m CPU      2h 3m WALL


   This run was terminated on:   2:34:52   7Jan2025            

=------------------------------------------------------------------------------=
   JOB DONE.
=------------------------------------------------------------------------------=
