
     Program PWSCF v.7.4 starts on 24Jan2025 at  1:57:13 

     This program is part of the open-source Quantum ESPRESSO suite
     for quantum simulation of materials; please cite
         "P. Giannozzi et al., J. Phys.:Condens. Matter 21 395502 (2009);
         "P. Giannozzi et al., J. Phys.:Condens. Matter 29 465901 (2017);
         "P. Giannozzi et al., J. Chem. Phys. 152 154105 (2020);
          URL http://www.quantum-espresso.org", 
     in publications or presentations arising from this work. More details at
     http://www.quantum-espresso.org/quote

     Parallel version (MPI & OpenMP), running on     384 processor cores
     Number of MPI processes:               384
     Threads/MPI process:                     1

     MPI processes distributed on     3 nodes
     233626 MiB available memory on the printing compute node when the environment starts

     Reading input from espresso.pwi
Warning: card &CELL ignored
Warning: card    PRESS_CONV_THR   = 0.1 ignored
Warning: card    CELL_DOFREE      = 'ALL' ignored
Warning: card / ignored
Warning: card &FCP ignored
Warning: card / ignored
Warning: card &RISM ignored
Warning: card / ignored

     Current dimensions of program PWSCF are:
     Max number of different atomic species (ntypx) = 10
     Max number of k-points (npk) =  40000
     Max angular momentum in pseudopotentials (lmaxx) =  4

     IMPORTANT: XC functional enforced from input :
     Exchange-correlation= PBE
                           (   1   4   3   4   0   0   0)
     Any further DFT definition will be discarded
     Please, verify this is what you really want


     Reading input from environ.in:
     * using ionic solvent mode
     * setting boundary derivatives method to SSCS default
     * setting electrolyte-boundary derivatives method to SSCS default

Environ Warning (1001): card EOF ignored

     
     Found identity + (  0.5000 -0.0000  0.0000) symmetry
     This is a supercell, fractional translations are disabled

     K-points division:     npool     =       2
     R & G space division:  proc/nbgrp/npool/nimage =     192
     Subspace diagonalization in iterative solution of the eigenvalue problem:
     a serial algorithm will be used


     Parallelization info
     --------------------
     sticks:   dense  smooth     PW     G-vecs:    dense   smooth      PW
     Min          62      25      6                33436     8439    1136
     Max          63      27      7                33505     8489    1207
     Sum       11999    4803   1285              6425037  1625491  225007

     Using Slab Decomposition



     bravais-lattice index     =            8
     lattice parameter (alat)  =      12.9830  a.u.
     unit-cell volume          =   16814.9378 (a.u.)^3
     number of atoms/cell      =           20
     number of atomic types    =            1
     number of electrons       =        60.00
     number of Kohn-Sham states=           45
     kinetic-energy cutoff     =      80.0000  Ry
     charge density cutoff     =     800.0000  Ry
     scf convergence threshold =      1.0E-06
     mixing beta               =       0.2000
     number of iterations used =            8  local-TF  mixing
     energy convergence thresh.=      1.0E-05
     force convergence thresh. =      3.9E-04
     Exchange-correlation= PBE
                           (   1   4   3   4   0   0   0)
     nstep                     =          999


     ================================================================================

                                  Environ Setup Summary

     ================================================================================

     Please cite

          O. Andreussi, I. Dabo and N. Marzari, J. Chem. Phys. 136, 064102 (2012)
          F. Nattino, M. Truscott, N. Marzari, and O. Andreussi, J. Chem. Phys. 150, 041722 (2019)

     in publications or presentations arising from this work.

     ================================================================================

     Parameters
     ==========

     compensation onset threshold      =               0.1000E+00
     static permittivity               =                    89.90
     surface tension in input (dyn/cm) =                    37.30
     surface tension in internal units =               0.4792E-04

     Solvent Boundary
     ================

     solvent mode                      =                    ionic
     derivatives method                =                   lowmem
     electrolyte derivatives method    =                   lowmem
     numerical core for derivatives    =                      fft
     switching function adopted        =                     SCCS
     density limit for vacuum region   =               0.5000E-02
     density limit for bulk solvent    =               0.1000E-03
     soft-sphere radius mode           =                    bondi
     soft-sphere softness              =                     0.50
     alpha                             =                     1.32

     Electrostatic Setup
     ===================

     electrostatic problem to solve    =                    modpb
     numerical solver adopted          =                   newton
     type of auxiliary density adopted =                     none
     numerical core for poisson        =                      fft
     adopting a nested solver scheme
     inner solver                      =                       cg
     inner core                        =                      fft
     type of pbc corrections           =                parabolic
     numerical core for corrections    =                      1da

     ================================================================================


     >>>>> Grand-Canonical SCF is activated <<<<<
     Initial Total Charge  =     0.000000 e
     Target Fermi Energy   =    -1.654000 eV
     Thr. of Fermi Energy  =     0.001000 eV
     Wave-shift of Kerker  =     0.400000 bohr^-1
     Wave-shift of Hartree =     1.500000 bohr^-1
     Mixing Rate of Fermi  =     0.050000

     celldm(1)=  12.983009  celldm(2)=   1.118034  celldm(3)=   6.872491
     celldm(4)=   0.000000  celldm(5)=   0.000000  celldm(6)=   0.000000

     crystal axes: (cart. coord. in units of alat)
               a(1) = (   1.000000   0.000000   0.000000 )  
               a(2) = (   0.000000   1.118034   0.000000 )  
               a(3) = (   0.000000   0.000000   6.872491 )  

     reciprocal axes: (cart. coord. in units 2 pi/alat)
               b(1) = (  1.000000  0.000000  0.000000 )  
               b(2) = (  0.000000  0.894427  0.000000 )  
               b(3) = (  0.000000  0.000000  0.145508 )  


     PseudoPot. # 1 for Li read from file:
     /work/e89/e89/ba3g18/Repos/Pseudopotentials/Pslibrary/Li.pbe-sl-kjpaw_psl.1.0.0.UPF
     MD5 check sum: 3f4d2cafebb47c6c3aa8ed472e6f074d
     Pseudo is Projector augmented-wave, Zval =  3.0
     Generated using 'atomic' code by A. Dal Corso  v.7.4
     Shape of augmentation charge: PSQ
     Using radial grid of 1017 points,  4 beta functions with: 
                l(1) =   0
                l(2) =   0
                l(3) =   1
                l(4) =   1
     Q(r) pseudized with 0 coefficients 


     atomic species   valence    mass     pseudopotential
     Li                3.00     6.94000     Li( 1.00)

      2 Sym. Ops. (no inversion) found


                                    s                        frac. trans.

      isym =  1     identity                                     

 cryst.   s( 1) = (     1          0          0      )
                  (     0          1          0      )
                  (     0          0          1      )

 cart.    s( 1) = (  1.0000000  0.0000000  0.0000000 )
                  (  0.0000000  1.0000000  0.0000000 )
                  (  0.0000000  0.0000000  1.0000000 )


      isym =  2     inv. 180 deg rotation - cart. axis [1,0,0]   

 cryst.   s( 2) = (    -1          0          0      )
                  (     0          1          0      )
                  (     0          0          1      )

 cart.    s( 2) = ( -1.0000000  0.0000000  0.0000000 )
                  (  0.0000000  1.0000000  0.0000000 )
                  (  0.0000000  0.0000000  1.0000000 )


     point group C_s (m)    
     there are  2 classes
     the character table:

       E     s    
A'     1.00  1.00
A''    1.00 -1.00

     the symmetry operations in each class and the name of the first element:

     E        1
          identity                                               
     s        2
          inv. 180 deg rotation - cart. axis [1,0,0]             

   Cartesian axes

     site n.     atom                  positions (alat units)
         1        Li     tau(   1) = (  -0.0000000   0.4459480   3.7562735  )
         2        Li     tau(   2) = (  -0.0000000   0.9011179   3.4657145  )
         3        Li     tau(   3) = (  -0.0000000   0.2215109   3.2738878  )
         4        Li     tau(   4) = (  -0.0000000   0.6422931   3.0581967  )
         5        Li     tau(   5) = (  -0.0000000   0.0347282   3.9385922  )
         6        Li     tau(   6) = (   0.2500017   0.5524521   3.4068461  )
         7        Li     tau(   7) = (   0.2499986   1.0074069   3.1163450  )
         8        Li     tau(   8) = (   0.2499992   0.3004606   2.9340906  )
         9        Li     tau(   9) = (   0.2500008   0.8110204   3.8143270  )
        10        Li     tau(  10) = (   0.2499991   0.1142137   3.5981746  )
        11        Li     tau(  11) = (   0.5000000   0.4459476   3.7562737  )
        12        Li     tau(  12) = (   0.5000000   0.9011174   3.4657126  )
        13        Li     tau(  13) = (   0.5000000   0.2215133   3.2738846  )
        14        Li     tau(  14) = (   0.5000000   0.6422925   3.0581945  )
        15        Li     tau(  15) = (   0.5000000   0.0347285   3.9385978  )
        16        Li     tau(  16) = (   0.7499982   0.5524521   3.4068461  )
        17        Li     tau(  17) = (   0.7500013   1.0074069   3.1163450  )
        18        Li     tau(  18) = (   0.7500007   0.3004606   2.9340906  )
        19        Li     tau(  19) = (   0.7499992   0.8110204   3.8143270  )
        20        Li     tau(  20) = (   0.7500009   0.1142137   3.5981746  )

   Crystallographic axes

     site n.     atom                  positions (cryst. coord.)
         1        Li     tau(   1) = ( -0.0000000  0.3988680  0.5465665  )
         2        Li     tau(   2) = ( -0.0000000  0.8059843  0.5042880  )
         3        Li     tau(   3) = ( -0.0000000  0.1981254  0.4763757  )
         4        Li     tau(   4) = ( -0.0000000  0.5744844  0.4449910  )
         5        Li     tau(   5) = ( -0.0000000  0.0310618  0.5730953  )
         6        Li     tau(   6) = (  0.2500017  0.4941282  0.4957222  )
         7        Li     tau(   7) = (  0.2499986  0.9010522  0.4534520  )
         8        Li     tau(   8) = (  0.2499992  0.2687401  0.4269326  )
         9        Li     tau(   9) = (  0.2500008  0.7253987  0.5550137  )
        10        Li     tau(  10) = (  0.2499991  0.1021559  0.5235619  )
        11        Li     tau(  11) = (  0.5000000  0.3988677  0.5465665  )
        12        Li     tau(  12) = (  0.5000000  0.8059839  0.5042877  )
        13        Li     tau(  13) = (  0.5000000  0.1981275  0.4763752  )
        14        Li     tau(  14) = (  0.5000000  0.5744839  0.4449907  )
        15        Li     tau(  15) = (  0.5000000  0.0310621  0.5730961  )
        16        Li     tau(  16) = (  0.7499982  0.4941282  0.4957222  )
        17        Li     tau(  17) = (  0.7500013  0.9010522  0.4534520  )
        18        Li     tau(  18) = (  0.7500007  0.2687401  0.4269326  )
        19        Li     tau(  19) = (  0.7499992  0.7253987  0.5550137  )
        20        Li     tau(  20) = (  0.7500009  0.1021559  0.5235619  )

     number of k points=    30  Marzari-Vanderbilt smearing, width (Ry)=  0.0100
                       cart. coord. in units 2pi/alat
        k(    1) = (   0.0000000   0.0000000   0.0000000), wk =   0.0222222
        k(    2) = (   0.0000000   0.0993808   0.0000000), wk =   0.0444444
        k(    3) = (   0.0000000   0.1987616   0.0000000), wk =   0.0444444
        k(    4) = (   0.0000000   0.2981424   0.0000000), wk =   0.0444444
        k(    5) = (   0.0000000   0.3975232   0.0000000), wk =   0.0444444
        k(    6) = (   0.1000000   0.0000000   0.0000000), wk =   0.0444444
        k(    7) = (   0.1000000   0.0993808   0.0000000), wk =   0.0888889
        k(    8) = (   0.1000000   0.1987616   0.0000000), wk =   0.0888889
        k(    9) = (   0.1000000   0.2981424   0.0000000), wk =   0.0888889
        k(   10) = (   0.1000000   0.3975232   0.0000000), wk =   0.0888889
        k(   11) = (   0.2000000   0.0000000   0.0000000), wk =   0.0444444
        k(   12) = (   0.2000000   0.0993808   0.0000000), wk =   0.0888889
        k(   13) = (   0.2000000   0.1987616   0.0000000), wk =   0.0888889
        k(   14) = (   0.2000000   0.2981424   0.0000000), wk =   0.0888889
        k(   15) = (   0.2000000   0.3975232   0.0000000), wk =   0.0888889
        k(   16) = (   0.3000000   0.0000000   0.0000000), wk =   0.0444444
        k(   17) = (   0.3000000   0.0993808   0.0000000), wk =   0.0888889
        k(   18) = (   0.3000000   0.1987616   0.0000000), wk =   0.0888889
        k(   19) = (   0.3000000   0.2981424   0.0000000), wk =   0.0888889
        k(   20) = (   0.3000000   0.3975232   0.0000000), wk =   0.0888889
        k(   21) = (   0.4000000   0.0000000   0.0000000), wk =   0.0444444
        k(   22) = (   0.4000000   0.0993808   0.0000000), wk =   0.0888889
        k(   23) = (   0.4000000   0.1987616   0.0000000), wk =   0.0888889
        k(   24) = (   0.4000000   0.2981424   0.0000000), wk =   0.0888889
        k(   25) = (   0.4000000   0.3975232   0.0000000), wk =   0.0888889
        k(   26) = (  -0.5000000   0.0000000   0.0000000), wk =   0.0222222
        k(   27) = (  -0.5000000   0.0993808   0.0000000), wk =   0.0444444
        k(   28) = (  -0.5000000   0.1987616   0.0000000), wk =   0.0444444
        k(   29) = (  -0.5000000   0.2981424   0.0000000), wk =   0.0444444
        k(   30) = (  -0.5000000   0.3975232   0.0000000), wk =   0.0444444

                       cryst. coord.
        k(    1) = (   0.0000000   0.0000000   0.0000000), wk =   0.0222222
        k(    2) = (   0.0000000   0.1111111   0.0000000), wk =   0.0444444
        k(    3) = (   0.0000000   0.2222222   0.0000000), wk =   0.0444444
        k(    4) = (   0.0000000   0.3333333   0.0000000), wk =   0.0444444
        k(    5) = (   0.0000000   0.4444444   0.0000000), wk =   0.0444444
        k(    6) = (   0.1000000   0.0000000   0.0000000), wk =   0.0444444
        k(    7) = (   0.1000000   0.1111111   0.0000000), wk =   0.0888889
        k(    8) = (   0.1000000   0.2222222   0.0000000), wk =   0.0888889
        k(    9) = (   0.1000000   0.3333333   0.0000000), wk =   0.0888889
        k(   10) = (   0.1000000   0.4444444   0.0000000), wk =   0.0888889
        k(   11) = (   0.2000000   0.0000000   0.0000000), wk =   0.0444444
        k(   12) = (   0.2000000   0.1111111   0.0000000), wk =   0.0888889
        k(   13) = (   0.2000000   0.2222222   0.0000000), wk =   0.0888889
        k(   14) = (   0.2000000   0.3333333   0.0000000), wk =   0.0888889
        k(   15) = (   0.2000000   0.4444444   0.0000000), wk =   0.0888889
        k(   16) = (   0.3000000   0.0000000   0.0000000), wk =   0.0444444
        k(   17) = (   0.3000000   0.1111111   0.0000000), wk =   0.0888889
        k(   18) = (   0.3000000   0.2222222   0.0000000), wk =   0.0888889
        k(   19) = (   0.3000000   0.3333333   0.0000000), wk =   0.0888889
        k(   20) = (   0.3000000   0.4444444   0.0000000), wk =   0.0888889
        k(   21) = (   0.4000000   0.0000000   0.0000000), wk =   0.0444444
        k(   22) = (   0.4000000   0.1111111   0.0000000), wk =   0.0888889
        k(   23) = (   0.4000000   0.2222222   0.0000000), wk =   0.0888889
        k(   24) = (   0.4000000   0.3333333   0.0000000), wk =   0.0888889
        k(   25) = (   0.4000000   0.4444444   0.0000000), wk =   0.0888889
        k(   26) = (  -0.5000000   0.0000000   0.0000000), wk =   0.0222222
        k(   27) = (  -0.5000000   0.1111111   0.0000000), wk =   0.0444444
        k(   28) = (  -0.5000000   0.2222222   0.0000000), wk =   0.0444444
        k(   29) = (  -0.5000000   0.3333333   0.0000000), wk =   0.0444444
        k(   30) = (  -0.5000000   0.4444444   0.0000000), wk =   0.0444444

     Dense  grid:  6425037 G-vectors     FFT dimensions: ( 120, 135, 810)

     Smooth grid:  1625491 G-vectors     FFT dimensions: (  75,  90, 512)

     Dynamical RAM for                 wfc:       0.73 MB

     Dynamical RAM for     wfc (w. buffer):      11.62 MB

     Dynamical RAM for           str. fact:       0.51 MB

     Dynamical RAM for           local pot:       0.00 MB

     Dynamical RAM for          nlocal pot:       2.58 MB

     Dynamical RAM for                qrad:       0.65 MB

     Dynamical RAM for          rho,v,vnew:       3.38 MB

     Dynamical RAM for               rhoin:       1.13 MB

     Dynamical RAM for            rho*nmix:       8.16 MB

     Dynamical RAM for           G-vectors:       1.98 MB

     Dynamical RAM for          h,s,v(r/c):       1.48 MB

     Dynamical RAM for          <psi|beta>:       0.11 MB

     Dynamical RAM for                 psi:       2.91 MB

     Dynamical RAM for                hpsi:       2.91 MB

     Dynamical RAM for                spsi:       2.91 MB

     Dynamical RAM for      wfcinit/wfcrot:       1.50 MB

     Dynamical RAM for           addusdens:      16.33 MB

     Dynamical RAM for          addusforce:      26.04 MB

     Estimated static dynamical RAM per process >      25.97 MB

     Estimated max dynamical RAM per process >      98.04 MB

     Estimated total dynamical RAM >      21.03 GB

     Initial potential from superposition of free atoms

     starting charge      59.9078, renormalised to      60.0000

     negative rho (up, down):  2.814E-03 0.000E+00
     Starting wfcs are random
     Checking if some PAW data can be deallocated... 

     total cpu time spent up to now is       21.3 secs

     Self-consistent Calculation

     iteration #  1     ecut=    80.00 Ry     beta= 0.20
     Davidson diagonalization with overlap

---- Real-time Memory Report at c_bands before calling an iterative solver
           367 MiB given to the printing process from OS
             0 MiB allocation reported by mallinfo(arena+hblkhd)
        218995 MiB available memory on the node where the printing process lives
------------------
     c_bands:  1 eigenvalues not converged
     c_bands:  1 eigenvalues not converged
     ethr =  1.00E-12,  avg # of iterations =121.7

     negative rho (up, down):  2.057E-03 0.000E+00

     total cpu time spent up to now is      106.9 secs

     total energy              =    -300.88478088 Ry
     estimated scf accuracy    <       0.10808256 Ry

     total charge of GC-SCF    =      -0.00185060 e
     the Fermi energy          =      -4.57118046 eV
                        (error :       2.91718046 eV)
     electrostatic embedding   =       0.00000000 Ry
     cavitation energy         =       0.02127563 Ry
     electrolyte free energy   =       0.00723735 Ry
     correction to one-el term =      -0.00000000 Ry

     iteration #  2     ecut=    80.00 Ry     beta= 0.20
     Davidson diagonalization with overlap

---- Real-time Memory Report at c_bands before calling an iterative solver
           367 MiB given to the printing process from OS
             0 MiB allocation reported by mallinfo(arena+hblkhd)
        219053 MiB available memory on the node where the printing process lives
------------------
     ethr =  1.00E-05,  avg # of iterations = 10.0

     negative rho (up, down):  1.478E-03 0.000E+00

     add environment contribution to local potential

     total cpu time spent up to now is      120.9 secs

     total energy              =    -300.64588037 Ry
     estimated scf accuracy    <       0.03927046 Ry

     total charge of GC-SCF    =      -0.01778665 e
     the Fermi energy          =      -3.74866090 eV
                        (error :       2.09466090 eV)
     electrostatic embedding   =      -0.00001037 Ry
     cavitation energy         =       0.02127563 Ry
     electrolyte free energy   =       0.00723735 Ry
     correction to one-el term =      -0.00000000 Ry

     iteration #  3     ecut=    80.00 Ry     beta= 0.20
     Davidson diagonalization with overlap

---- Real-time Memory Report at c_bands before calling an iterative solver
           367 MiB given to the printing process from OS
             0 MiB allocation reported by mallinfo(arena+hblkhd)
        219111 MiB available memory on the node where the printing process lives
------------------
     ethr =  1.00E-05,  avg # of iterations = 17.2

     negative rho (up, down):  1.251E-03 0.000E+00

     add environment contribution to local potential

     total cpu time spent up to now is      139.2 secs

     total energy              =    -300.66444803 Ry
     estimated scf accuracy    <       0.01158128 Ry

     total charge of GC-SCF    =      -0.07610723 e
     the Fermi energy          =      -2.77422425 eV
                        (error :       1.12022425 eV)
     electrostatic embedding   =      -0.02164932 Ry
     cavitation energy         =       0.02127563 Ry
     electrolyte free energy   =      -0.00203010 Ry
     correction to one-el term =      -0.14863665 Ry

     iteration #  4     ecut=    80.00 Ry     beta= 0.20
     Davidson diagonalization with overlap

---- Real-time Memory Report at c_bands before calling an iterative solver
           367 MiB given to the printing process from OS
             0 MiB allocation reported by mallinfo(arena+hblkhd)
        219244 MiB available memory on the node where the printing process lives
------------------
     ethr =  1.00E-05,  avg # of iterations =  7.9

     negative rho (up, down):  1.042E-03 0.000E+00

     add environment contribution to local potential

     total cpu time spent up to now is      151.8 secs

     total energy              =    -300.63944502 Ry
     estimated scf accuracy    <       0.00844447 Ry

     total charge of GC-SCF    =      -0.19204629 e
     the Fermi energy          =      -3.05185120 eV
                        (error :       1.39785120 eV)
     electrostatic embedding   =      -0.02441526 Ry
     cavitation energy         =       0.02127563 Ry
     electrolyte free energy   =      -0.00277652 Ry
     correction to one-el term =       1.77294258 Ry

     iteration #  5     ecut=    80.00 Ry     beta= 0.20
     Davidson diagonalization with overlap

---- Real-time Memory Report at c_bands before calling an iterative solver
           367 MiB given to the printing process from OS
             0 MiB allocation reported by mallinfo(arena+hblkhd)
        219294 MiB available memory on the node where the printing process lives
------------------
     ethr =  1.00E-05,  avg # of iterations =  7.9

     negative rho (up, down):  8.834E-04 0.000E+00

     add environment contribution to local potential

     total cpu time spent up to now is      163.3 secs

     total energy              =    -300.60759783 Ry
     estimated scf accuracy    <       0.00259288 Ry

     total charge of GC-SCF    =      -0.37010976 e
     the Fermi energy          =      -2.74240167 eV
                        (error :       1.08840167 eV)
     electrostatic embedding   =      -0.03391806 Ry
     cavitation energy         =       0.02127563 Ry
     electrolyte free energy   =      -0.00151859 Ry
     correction to one-el term =       5.98499043 Ry

     iteration #  6     ecut=    80.00 Ry     beta= 0.20
     Davidson diagonalization with overlap

---- Real-time Memory Report at c_bands before calling an iterative solver
           367 MiB given to the printing process from OS
             0 MiB allocation reported by mallinfo(arena+hblkhd)
        219334 MiB available memory on the node where the printing process lives
------------------
     ethr =  4.29E-06,  avg # of iterations = 22.7

     negative rho (up, down):  8.084E-04 0.000E+00

     add environment contribution to local potential

     total cpu time spent up to now is      182.8 secs

     total energy              =    -300.66691916 Ry
     estimated scf accuracy    <       0.00383859 Ry

     total charge of GC-SCF    =      -0.56784973 e
     the Fermi energy          =      -2.31012704 eV
                        (error :       0.65612704 eV)
     electrostatic embedding   =      -0.06744260 Ry
     cavitation energy         =       0.02127563 Ry
     electrolyte free energy   =      -0.00123055 Ry
     correction to one-el term =      12.53532611 Ry

     iteration #  7     ecut=    80.00 Ry     beta= 0.20
     Davidson diagonalization with overlap

---- Real-time Memory Report at c_bands before calling an iterative solver
           367 MiB given to the printing process from OS
             0 MiB allocation reported by mallinfo(arena+hblkhd)
        219380 MiB available memory on the node where the printing process lives
------------------
     ethr =  4.29E-06,  avg # of iterations = 10.2

     negative rho (up, down):  7.784E-04 0.000E+00

     add environment contribution to local potential

     total cpu time spent up to now is      196.0 secs

     total energy              =    -300.66832300 Ry
     estimated scf accuracy    <       0.00479511 Ry

     total charge of GC-SCF    =      -0.76482322 e
     the Fermi energy          =      -2.20833184 eV
                        (error :       0.55433184 eV)
     electrostatic embedding   =      -0.12537718 Ry
     cavitation energy         =       0.02127563 Ry
     electrolyte free energy   =      -0.00168141 Ry
     correction to one-el term =      18.88418052 Ry

     iteration #  8     ecut=    80.00 Ry     beta= 0.20
     Davidson diagonalization with overlap

---- Real-time Memory Report at c_bands before calling an iterative solver
           367 MiB given to the printing process from OS
             0 MiB allocation reported by mallinfo(arena+hblkhd)
        219374 MiB available memory on the node where the printing process lives
------------------
     ethr =  4.29E-06,  avg # of iterations =  9.0

     negative rho (up, down):  7.842E-04 0.000E+00

     add environment contribution to local potential

     total cpu time spent up to now is      208.6 secs

     total energy              =    -300.67081957 Ry
     estimated scf accuracy    <       0.00082052 Ry

     total charge of GC-SCF    =      -1.19491093 e
     the Fermi energy          =      -2.34942681 eV
                        (error :       0.69542681 eV)
     electrostatic embedding   =      -0.19873554 Ry
     cavitation energy         =       0.02127563 Ry
     electrolyte free energy   =      -0.00165557 Ry
     correction to one-el term =      24.48940781 Ry

     iteration #  9     ecut=    80.00 Ry     beta= 0.20
     Davidson diagonalization with overlap

---- Real-time Memory Report at c_bands before calling an iterative solver
           367 MiB given to the printing process from OS
             0 MiB allocation reported by mallinfo(arena+hblkhd)
        219361 MiB available memory on the node where the printing process lives
------------------
     ethr =  1.34E-06,  avg # of iterations = 12.3

     negative rho (up, down):  7.141E-04 0.000E+00

     add environment contribution to local potential

     total cpu time spent up to now is      223.6 secs

     total energy              =    -300.72204566 Ry
     estimated scf accuracy    <       0.00034337 Ry

     total charge of GC-SCF    =      -1.32684541 e
     the Fermi energy          =      -2.38669390 eV
                        (error :       0.73269390 eV)
     electrostatic embedding   =      -0.41624350 Ry
     cavitation energy         =       0.02127563 Ry
     electrolyte free energy   =      -0.00274875 Ry
     correction to one-el term =      36.59585932 Ry

     iteration # 10     ecut=    80.00 Ry     beta= 0.20
     Davidson diagonalization with overlap

---- Real-time Memory Report at c_bands before calling an iterative solver
           367 MiB given to the printing process from OS
             0 MiB allocation reported by mallinfo(arena+hblkhd)
        219339 MiB available memory on the node where the printing process lives
------------------
     ethr =  5.60E-07,  avg # of iterations =  9.4

     negative rho (up, down):  5.672E-04 0.000E+00

     add environment contribution to local potential

     total cpu time spent up to now is      237.2 secs

     total energy              =    -300.72587260 Ry
     estimated scf accuracy    <       0.00052098 Ry

     total charge of GC-SCF    =      -1.47838947 e
     the Fermi energy          =      -2.41776512 eV
                        (error :       0.76376512 eV)
     electrostatic embedding   =      -0.49926866 Ry
     cavitation energy         =       0.02127563 Ry
     electrolyte free energy   =      -0.00324207 Ry
     correction to one-el term =      40.24829439 Ry

     iteration # 11     ecut=    80.00 Ry     beta= 0.20
     Davidson diagonalization with overlap

---- Real-time Memory Report at c_bands before calling an iterative solver
           367 MiB given to the printing process from OS
             0 MiB allocation reported by mallinfo(arena+hblkhd)
        219352 MiB available memory on the node where the printing process lives
------------------
     ethr =  5.60E-07,  avg # of iterations = 11.4

     negative rho (up, down):  4.909E-04 0.000E+00

     add environment contribution to local potential

     total cpu time spent up to now is      251.9 secs

     total energy              =    -300.74747631 Ry
     estimated scf accuracy    <       0.00038662 Ry

     total charge of GC-SCF    =      -1.55513538 e
     the Fermi energy          =      -2.37137440 eV
                        (error :       0.71737440 eV)
     electrostatic embedding   =      -0.59901107 Ry
     cavitation energy         =       0.02127563 Ry
     electrolyte free energy   =      -0.00392122 Ry
     correction to one-el term =      44.44577771 Ry

     iteration # 12     ecut=    80.00 Ry     beta= 0.20
     Davidson diagonalization with overlap

---- Real-time Memory Report at c_bands before calling an iterative solver
           367 MiB given to the printing process from OS
             0 MiB allocation reported by mallinfo(arena+hblkhd)
        219360 MiB available memory on the node where the printing process lives
------------------
     ethr =  5.60E-07,  avg # of iterations =  9.1

     negative rho (up, down):  4.199E-04 0.000E+00

     add environment contribution to local potential

     total cpu time spent up to now is      265.1 secs

     total energy              =    -300.73561109 Ry
     estimated scf accuracy    <       0.00032481 Ry

     total charge of GC-SCF    =      -1.74516821 e
     the Fermi energy          =      -2.35336060 eV
                        (error :       0.69936060 eV)
     electrostatic embedding   =      -0.65110579 Ry
     cavitation energy         =       0.02127563 Ry
     electrolyte free energy   =      -0.00428938 Ry
     correction to one-el term =      46.45971519 Ry

     iteration # 13     ecut=    80.00 Ry     beta= 0.20
     Davidson diagonalization with overlap

---- Real-time Memory Report at c_bands before calling an iterative solver
           367 MiB given to the printing process from OS
             0 MiB allocation reported by mallinfo(arena+hblkhd)
        219363 MiB available memory on the node where the printing process lives
------------------
     ethr =  5.26E-07,  avg # of iterations = 12.0

     negative rho (up, down):  3.765E-04 0.000E+00

     add environment contribution to local potential

     total cpu time spent up to now is      281.8 secs

     total energy              =    -300.79806617 Ry
     estimated scf accuracy    <       0.00028996 Ry

     total charge of GC-SCF    =      -2.78621052 e
     the Fermi energy          =      -2.33107083 eV
                        (error :       0.67707083 eV)
     electrostatic embedding   =      -0.79035067 Ry
     cavitation energy         =       0.02127563 Ry
     electrolyte free energy   =      -0.00532934 Ry
     correction to one-el term =      51.39841738 Ry

     iteration # 14     ecut=    80.00 Ry     beta= 0.20
     Davidson diagonalization with overlap

---- Real-time Memory Report at c_bands before calling an iterative solver
           367 MiB given to the printing process from OS
             0 MiB allocation reported by mallinfo(arena+hblkhd)
        219362 MiB available memory on the node where the printing process lives
------------------
     ethr =  4.62E-07,  avg # of iterations = 21.7

     negative rho (up, down):  3.420E-04 0.000E+00

     add environment contribution to local potential

     total cpu time spent up to now is      303.8 secs

     total energy              =    -300.79489837 Ry
     estimated scf accuracy    <       0.00013715 Ry

     total charge of GC-SCF    =      -3.08602966 e
     the Fermi energy          =      -2.18326459 eV
                        (error :       0.52926459 eV)
     electrostatic embedding   =      -1.84617820 Ry
     cavitation energy         =       0.02127563 Ry
     electrolyte free energy   =      -0.01679209 Ry
     correction to one-el term =      79.93251276 Ry

     iteration # 15     ecut=    80.00 Ry     beta= 0.20
     Davidson diagonalization with overlap

---- Real-time Memory Report at c_bands before calling an iterative solver
           367 MiB given to the printing process from OS
             0 MiB allocation reported by mallinfo(arena+hblkhd)
        219366 MiB available memory on the node where the printing process lives
------------------
     ethr =  2.17E-07,  avg # of iterations = 20.2

     negative rho (up, down):  3.316E-04 0.000E+00

     add environment contribution to local potential

     total cpu time spent up to now is      325.1 secs

     total energy              =    -300.83552547 Ry
     estimated scf accuracy    <       0.00017979 Ry

     total charge of GC-SCF    =      -2.99099797 e
     the Fermi energy          =      -2.06624013 eV
                        (error :       0.41224013 eV)
     electrostatic embedding   =      -2.23519775 Ry
     cavitation energy         =       0.02127563 Ry
     electrolyte free energy   =      -0.02262197 Ry
     correction to one-el term =      88.46085414 Ry

     iteration # 16     ecut=    80.00 Ry     beta= 0.20
     Davidson diagonalization with overlap

---- Real-time Memory Report at c_bands before calling an iterative solver
           367 MiB given to the printing process from OS
             0 MiB allocation reported by mallinfo(arena+hblkhd)
        219382 MiB available memory on the node where the printing process lives
------------------
     ethr =  2.17E-07,  avg # of iterations =  8.6

     negative rho (up, down):  3.182E-04 0.000E+00

     add environment contribution to local potential

     total cpu time spent up to now is      339.7 secs

     total energy              =    -300.81045213 Ry
     estimated scf accuracy    <       0.00018641 Ry

     total charge of GC-SCF    =      -3.15464880 e
     the Fermi energy          =      -2.08395520 eV
                        (error :       0.42995520 eV)
     electrostatic embedding   =      -2.11294410 Ry
     cavitation energy         =       0.02127563 Ry
     electrolyte free energy   =      -0.02076229 Ry
     correction to one-el term =      85.97598877 Ry

     iteration # 17     ecut=    80.00 Ry     beta= 0.20
     Davidson diagonalization with overlap

---- Real-time Memory Report at c_bands before calling an iterative solver
           367 MiB given to the printing process from OS
             0 MiB allocation reported by mallinfo(arena+hblkhd)
        219382 MiB available memory on the node where the printing process lives
------------------
     ethr =  2.17E-07,  avg # of iterations = 10.4

     negative rho (up, down):  3.173E-04 0.000E+00

     add environment contribution to local potential

     total cpu time spent up to now is      356.1 secs

     total energy              =    -300.82377673 Ry
     estimated scf accuracy    <       0.00024350 Ry

     total charge of GC-SCF    =      -3.18648141 e
     the Fermi energy          =      -2.03013626 eV
                        (error :       0.37613626 eV)
     electrostatic embedding   =      -2.33601397 Ry
     cavitation energy         =       0.02127563 Ry
     electrolyte free energy   =      -0.02423640 Ry
     correction to one-el term =      90.65004417 Ry

     iteration # 18     ecut=    80.00 Ry     beta= 0.20
     Davidson diagonalization with overlap

---- Real-time Memory Report at c_bands before calling an iterative solver
           367 MiB given to the printing process from OS
             0 MiB allocation reported by mallinfo(arena+hblkhd)
        219377 MiB available memory on the node where the printing process lives
------------------
     ethr =  2.17E-07,  avg # of iterations =  9.5

     negative rho (up, down):  2.971E-04 0.000E+00

     add environment contribution to local potential

     total cpu time spent up to now is      371.2 secs

     total energy              =    -300.82071309 Ry
     estimated scf accuracy    <       0.00036634 Ry

     total charge of GC-SCF    =      -3.26905474 e
     the Fermi energy          =      -2.00444047 eV
                        (error :       0.35044047 eV)
     electrostatic embedding   =      -2.37810244 Ry
     cavitation energy         =       0.02127563 Ry
     electrolyte free energy   =      -0.02500720 Ry
     correction to one-el term =      91.53219514 Ry

     iteration # 19     ecut=    80.00 Ry     beta= 0.20
     Davidson diagonalization with overlap

---- Real-time Memory Report at c_bands before calling an iterative solver
           367 MiB given to the printing process from OS
             0 MiB allocation reported by mallinfo(arena+hblkhd)
        219380 MiB available memory on the node where the printing process lives
------------------
     ethr =  2.17E-07,  avg # of iterations =  8.1

     negative rho (up, down):  2.898E-04 0.000E+00

     add environment contribution to local potential

     total cpu time spent up to now is      386.0 secs

     total energy              =    -300.82471838 Ry
     estimated scf accuracy    <       0.00014784 Ry

     total charge of GC-SCF    =      -3.33685642 e
     the Fermi energy          =      -2.02249330 eV
                        (error :       0.36849330 eV)
     electrostatic embedding   =      -2.48403864 Ry
     cavitation energy         =       0.02127563 Ry
     electrolyte free energy   =      -0.02665929 Ry
     correction to one-el term =      93.43783796 Ry

     iteration # 20     ecut=    80.00 Ry     beta= 0.20
     Davidson diagonalization with overlap

---- Real-time Memory Report at c_bands before calling an iterative solver
           367 MiB given to the printing process from OS
             0 MiB allocation reported by mallinfo(arena+hblkhd)
        219333 MiB available memory on the node where the printing process lives
------------------
     ethr =  2.17E-07,  avg # of iterations =  8.3

     negative rho (up, down):  2.878E-04 0.000E+00

     add environment contribution to local potential

     total cpu time spent up to now is      400.6 secs

     total energy              =    -300.82227652 Ry
     estimated scf accuracy    <       0.00012601 Ry

     total charge of GC-SCF    =      -3.53097207 e
     the Fermi energy          =      -2.01237823 eV
                        (error :       0.35837823 eV)
     electrostatic embedding   =      -2.57782271 Ry
     cavitation energy         =       0.02127563 Ry
     electrolyte free energy   =      -0.02823847 Ry
     correction to one-el term =      95.20998740 Ry

     iteration # 21     ecut=    80.00 Ry     beta= 0.20
     Davidson diagonalization with overlap

---- Real-time Memory Report at c_bands before calling an iterative solver
           367 MiB given to the printing process from OS
             0 MiB allocation reported by mallinfo(arena+hblkhd)
        219321 MiB available memory on the node where the printing process lives
------------------
     ethr =  1.98E-07,  avg # of iterations = 11.1

     negative rho (up, down):  2.958E-04 0.000E+00

     add environment contribution to local potential

     total cpu time spent up to now is      417.2 secs

     total energy              =    -300.82841902 Ry
     estimated scf accuracy    <       0.00008453 Ry

     total charge of GC-SCF    =      -3.71174628 e
     the Fermi energy          =      -1.98253431 eV
                        (error :       0.32853431 eV)
     electrostatic embedding   =      -2.85805538 Ry
     cavitation energy         =       0.02127563 Ry
     electrolyte free energy   =      -0.03316498 Ry
     correction to one-el term =     100.34307184 Ry

     iteration # 22     ecut=    80.00 Ry     beta= 0.20
     Davidson diagonalization with overlap

---- Real-time Memory Report at c_bands before calling an iterative solver
           367 MiB given to the printing process from OS
             0 MiB allocation reported by mallinfo(arena+hblkhd)
        219331 MiB available memory on the node where the printing process lives
------------------
     ethr =  1.33E-07,  avg # of iterations = 10.8

     negative rho (up, down):  2.937E-04 0.000E+00

     add environment contribution to local potential

     total cpu time spent up to now is      433.5 secs

     total energy              =    -300.84438403 Ry
     estimated scf accuracy    <       0.00007138 Ry

     total charge of GC-SCF    =      -3.66570467 e
     the Fermi energy          =      -1.94297049 eV
                        (error :       0.28897049 eV)
     electrostatic embedding   =      -3.13608010 Ry
     cavitation energy         =       0.02127563 Ry
     electrolyte free energy   =      -0.03836429 Ry
     correction to one-el term =     105.25142692 Ry

     iteration # 23     ecut=    80.00 Ry     beta= 0.20
     Davidson diagonalization with overlap

---- Real-time Memory Report at c_bands before calling an iterative solver
           367 MiB given to the printing process from OS
             0 MiB allocation reported by mallinfo(arena+hblkhd)
        219307 MiB available memory on the node where the printing process lives
------------------
     ethr =  1.12E-07,  avg # of iterations =  5.4

     negative rho (up, down):  2.859E-04 0.000E+00

     add environment contribution to local potential

     total cpu time spent up to now is      447.2 secs

     total energy              =    -300.83263474 Ry
     estimated scf accuracy    <       0.00006744 Ry

     total charge of GC-SCF    =      -3.86977267 e
     the Fermi energy          =      -1.95529189 eV
                        (error :       0.30129189 eV)
     electrostatic embedding   =      -3.05998209 Ry
     cavitation energy         =       0.02127563 Ry
     electrolyte free energy   =      -0.03696061 Ry
     correction to one-el term =     103.88260863 Ry

     iteration # 24     ecut=    80.00 Ry     beta= 0.20
     Davidson diagonalization with overlap

---- Real-time Memory Report at c_bands before calling an iterative solver
           367 MiB given to the printing process from OS
             0 MiB allocation reported by mallinfo(arena+hblkhd)
        219298 MiB available memory on the node where the printing process lives
------------------
     ethr =  1.06E-07,  avg # of iterations = 15.7

     negative rho (up, down):  2.769E-04 0.000E+00

     add environment contribution to local potential

     total cpu time spent up to now is      465.7 secs

     total energy              =    -300.85740326 Ry
     estimated scf accuracy    <       0.00005940 Ry

     total charge of GC-SCF    =      -3.72614852 e
     the Fermi energy          =      -1.90764172 eV
                        (error :       0.25364172 eV)
     electrostatic embedding   =      -3.36754934 Ry
     cavitation energy         =       0.02127563 Ry
     electrolyte free energy   =      -0.04325469 Ry
     correction to one-el term =     109.03170674 Ry

     iteration # 25     ecut=    80.00 Ry     beta= 0.20
     Davidson diagonalization with overlap

---- Real-time Memory Report at c_bands before calling an iterative solver
           367 MiB given to the printing process from OS
             0 MiB allocation reported by mallinfo(arena+hblkhd)
        219317 MiB available memory on the node where the printing process lives
------------------
     ethr =  9.32E-08,  avg # of iterations = 11.4

     negative rho (up, down):  2.509E-04 0.000E+00

     add environment contribution to local potential

     total cpu time spent up to now is      483.7 secs

     total energy              =    -300.86430461 Ry
     estimated scf accuracy    <       0.00005160 Ry

     total charge of GC-SCF    =      -4.33200229 e
     the Fermi energy          =      -1.95681137 eV
                        (error :       0.30281137 eV)
     electrostatic embedding   =      -3.12816846 Ry
     cavitation energy         =       0.02127563 Ry
     electrolyte free energy   =      -0.03857662 Ry
     correction to one-el term =     104.81212987 Ry

     iteration # 26     ecut=    80.00 Ry     beta= 0.20
     Davidson diagonalization with overlap

---- Real-time Memory Report at c_bands before calling an iterative solver
           367 MiB given to the printing process from OS
             0 MiB allocation reported by mallinfo(arena+hblkhd)
        219317 MiB available memory on the node where the printing process lives
------------------
     ethr =  8.02E-08,  avg # of iterations = 20.5

     negative rho (up, down):  2.456E-04 0.000E+00

     add environment contribution to local potential

     total cpu time spent up to now is      506.6 secs

     total energy              =    -300.85305039 Ry
     estimated scf accuracy    <       0.00003114 Ry

     total charge of GC-SCF    =      -4.26689838 e
     the Fermi energy          =      -1.79967264 eV
                        (error :       0.14567264 eV)
     electrostatic embedding   =      -4.11949493 Ry
     cavitation energy         =       0.02127563 Ry
     electrolyte free energy   =      -0.06024434 Ry
     correction to one-el term =     120.76452059 Ry

     iteration # 27     ecut=    80.00 Ry     beta= 0.20
     Davidson diagonalization with overlap

---- Real-time Memory Report at c_bands before calling an iterative solver
           367 MiB given to the printing process from OS
             0 MiB allocation reported by mallinfo(arena+hblkhd)
        219312 MiB available memory on the node where the printing process lives
------------------
     ethr =  4.85E-08,  avg # of iterations =  9.8

     negative rho (up, down):  2.393E-04 0.000E+00

     add environment contribution to local potential

     total cpu time spent up to now is      524.0 secs

     total energy              =    -300.84944972 Ry
     estimated scf accuracy    <       0.00002412 Ry

     total charge of GC-SCF    =      -4.49887333 e
     the Fermi energy          =      -1.83325519 eV
                        (error :       0.17925519 eV)
     electrostatic embedding   =      -3.98900660 Ry
     cavitation energy         =       0.02127563 Ry
     electrolyte free energy   =      -0.05743150 Ry
     correction to one-el term =     118.59346925 Ry

     iteration # 28     ecut=    80.00 Ry     beta= 0.20
     Davidson diagonalization with overlap

---- Real-time Memory Report at c_bands before calling an iterative solver
           367 MiB given to the printing process from OS
             0 MiB allocation reported by mallinfo(arena+hblkhd)
        219323 MiB available memory on the node where the printing process lives
------------------
     ethr =  3.74E-08,  avg # of iterations = 19.2

     negative rho (up, down):  2.369E-04 0.000E+00

     add environment contribution to local potential

     total cpu time spent up to now is      546.0 secs

     total energy              =    -300.85077381 Ry
     estimated scf accuracy    <       0.00001838 Ry

     total charge of GC-SCF    =      -4.52161297 e
     the Fermi energy          =      -1.76261751 eV
                        (error :       0.10861751 eV)
     electrostatic embedding   =      -4.40185701 Ry
     cavitation energy         =       0.02127563 Ry
     electrolyte free energy   =      -0.06736519 Ry
     correction to one-el term =     124.84361583 Ry

     iteration # 29     ecut=    80.00 Ry     beta= 0.20
     Davidson diagonalization with overlap

---- Real-time Memory Report at c_bands before calling an iterative solver
           367 MiB given to the printing process from OS
             0 MiB allocation reported by mallinfo(arena+hblkhd)
        219317 MiB available memory on the node where the printing process lives
------------------
     ethr =  2.85E-08,  avg # of iterations = 11.8

     negative rho (up, down):  2.348E-04 0.000E+00

     add environment contribution to local potential

     total cpu time spent up to now is      564.2 secs

     total energy              =    -300.86009672 Ry
     estimated scf accuracy    <       0.00001277 Ry

     total charge of GC-SCF    =      -4.81469644 e
     the Fermi energy          =      -1.76145255 eV
                        (error :       0.10745255 eV)
     electrostatic embedding   =      -4.42646709 Ry
     cavitation energy         =       0.02127563 Ry
     electrolyte free energy   =      -0.06829422 Ry
     correction to one-el term =     125.04030413 Ry

     iteration # 30     ecut=    80.00 Ry     beta= 0.20
     Davidson diagonalization with overlap

---- Real-time Memory Report at c_bands before calling an iterative solver
           367 MiB given to the printing process from OS
             0 MiB allocation reported by mallinfo(arena+hblkhd)
        219313 MiB available memory on the node where the printing process lives
------------------
     ethr =  1.97E-08,  avg # of iterations = 18.4

     negative rho (up, down):  2.372E-04 0.000E+00

     add environment contribution to local potential

     total cpu time spent up to now is      586.9 secs

     total energy              =    -300.85234156 Ry
     estimated scf accuracy    <       0.00000593 Ry

     total charge of GC-SCF    =      -4.82614237 e
     the Fermi energy          =      -1.67657308 eV
                        (error :       0.02257308 eV)
     electrostatic embedding   =      -4.96311286 Ry
     cavitation energy         =       0.02127563 Ry
     electrolyte free energy   =      -0.08259573 Ry
     correction to one-el term =     132.58790772 Ry

     iteration # 31     ecut=    80.00 Ry     beta= 0.20
     Davidson diagonalization with overlap

---- Real-time Memory Report at c_bands before calling an iterative solver
           367 MiB given to the printing process from OS
             0 MiB allocation reported by mallinfo(arena+hblkhd)
        219313 MiB available memory on the node where the printing process lives
------------------
     ethr =  9.15E-09,  avg # of iterations =  9.6

     negative rho (up, down):  2.363E-04 0.000E+00

     add environment contribution to local potential

     total cpu time spent up to now is      603.7 secs

     total energy              =    -300.85263608 Ry
     estimated scf accuracy    <       0.00000344 Ry

     total charge of GC-SCF    =      -4.80126478 e
     the Fermi energy          =      -1.67409698 eV
                        (error :       0.02009698 eV)
     electrostatic embedding   =      -4.97895904 Ry
     cavitation energy         =       0.02127563 Ry
     electrolyte free energy   =      -0.08317095 Ry
     correction to one-el term =     132.75318968 Ry

     iteration # 32     ecut=    80.00 Ry     beta= 0.20
     Davidson diagonalization with overlap

---- Real-time Memory Report at c_bands before calling an iterative solver
           367 MiB given to the printing process from OS
             0 MiB allocation reported by mallinfo(arena+hblkhd)
        219324 MiB available memory on the node where the printing process lives
------------------
     ethr =  5.31E-09,  avg # of iterations = 10.2

     negative rho (up, down):  2.322E-04 0.000E+00

     add environment contribution to local potential

     total cpu time spent up to now is      621.3 secs

     total energy              =    -300.85283856 Ry
     estimated scf accuracy    <       0.00000286 Ry

     total charge of GC-SCF    =      -4.87107626 e
     the Fermi energy          =      -1.68311956 eV
                        (error :       0.02911956 eV)
     electrostatic embedding   =      -4.92589477 Ry
     cavitation energy         =       0.02127563 Ry
     electrolyte free energy   =      -0.08183854 Ry
     correction to one-el term =     131.97520041 Ry

     iteration # 33     ecut=    80.00 Ry     beta= 0.20
     Davidson diagonalization with overlap

---- Real-time Memory Report at c_bands before calling an iterative solver
           367 MiB given to the printing process from OS
             0 MiB allocation reported by mallinfo(arena+hblkhd)
        219316 MiB available memory on the node where the printing process lives
------------------
     ethr =  4.40E-09,  avg # of iterations = 16.6

     negative rho (up, down):  2.295E-04 0.000E+00

     add environment contribution to local potential

     total cpu time spent up to now is      641.6 secs

     total energy              =    -300.85242002 Ry
     estimated scf accuracy    <       0.00000109 Ry

     total charge of GC-SCF    =      -4.87687487 e
     the Fermi energy          =      -1.66069427 eV
                        (error :       0.00669427 eV)
     electrostatic embedding   =      -5.05677670 Ry
     cavitation energy         =       0.02127563 Ry
     electrolyte free energy   =      -0.08554302 Ry
     correction to one-el term =     133.78894561 Ry

     iteration # 34     ecut=    80.00 Ry     beta= 0.20
     Davidson diagonalization with overlap

---- Real-time Memory Report at c_bands before calling an iterative solver
           367 MiB given to the printing process from OS
             0 MiB allocation reported by mallinfo(arena+hblkhd)
        219326 MiB available memory on the node where the printing process lives
------------------
     ethr =  1.67E-09,  avg # of iterations = 15.7

     negative rho (up, down):  2.286E-04 0.000E+00

     add environment contribution to local potential

     total cpu time spent up to now is      661.4 secs

     total energy              =    -300.85247012 Ry
     estimated scf accuracy    <       0.00000053 Ry

     total charge of GC-SCF    =      -4.89733885 e
     the Fermi energy          =      -1.66175935 eV
                        (error :       0.00775935 eV)
     electrostatic embedding   =      -5.06020941 Ry
     cavitation energy         =       0.02127563 Ry
     electrolyte free energy   =      -0.08581203 Ry
     correction to one-el term =     133.77221181 Ry

     iteration # 35     ecut=    80.00 Ry     beta= 0.20
     Davidson diagonalization with overlap

---- Real-time Memory Report at c_bands before calling an iterative solver
           367 MiB given to the printing process from OS
             0 MiB allocation reported by mallinfo(arena+hblkhd)
        219322 MiB available memory on the node where the printing process lives
------------------
     ethr =  8.17E-10,  avg # of iterations = 13.0

     negative rho (up, down):  2.267E-04 0.000E+00

     total cpu time spent up to now is      670.8 secs

     End of self-consistent calculation

          k = 0.0000 0.0000 0.0000 (203379 PWs)   bands (ev):

   -48.6070 -48.6055 -48.6054 -48.6040 -48.4365 -48.4361 -48.4342 -48.4338
   -48.4249 -48.4244 -48.4241 -48.4237 -48.1933 -48.1869 -48.1863 -48.1845
   -48.1770 -48.1722 -48.1709 -48.1672  -4.9652  -4.3181  -3.5211  -3.0444
    -3.0167  -2.6462  -2.5306  -2.5305  -2.2969  -2.2622  -1.8663  -1.8661
    -1.5155  -1.3208  -1.2198  -1.1133  -1.1128  -0.9837  -0.9832  -0.6953
    -0.6628  -0.6627  -0.3288  -0.2365  -0.0814

     occupation numbers 
     1.0000   1.0000   1.0000   1.0000   1.0000   1.0000   1.0000   1.0000
     1.0000   1.0000   1.0000   1.0000   1.0000   1.0000   1.0000   1.0000
     1.0000   1.0000   1.0000   1.0000   1.0000   1.0000   1.0000   1.0000
     1.0000   1.0000   1.0000   1.0000   1.0000   1.0000   1.0791   1.0791
     0.0273   0.0000   0.0000   0.0000   0.0000   0.0000   0.0000   0.0000
     0.0000   0.0000   0.0000   0.0000   0.0000

          k = 0.0000 0.0994 0.0000 (203275 PWs)   bands (ev):

   -48.6070 -48.6055 -48.6054 -48.6040 -48.4365 -48.4361 -48.4342 -48.4338
   -48.4249 -48.4244 -48.4241 -48.4237 -48.1932 -48.1869 -48.1863 -48.1847
   -48.1769 -48.1722 -48.1709 -48.1672  -4.9412  -4.2928  -3.4936  -3.4304
    -2.6983  -2.6207  -2.5846  -2.5091  -2.5091  -1.8677  -1.8509  -1.8507
    -1.7290  -1.4571  -1.2591  -1.2586  -0.9947  -0.9939  -0.8548  -0.7603
    -0.5698  -0.5693  -0.4817  -0.1002  -0.0162

     occupation numbers 
     1.0000   1.0000   1.0000   1.0000   1.0000   1.0000   1.0000   1.0000
     1.0000   1.0000   1.0000   1.0000   1.0000   1.0000   1.0000   1.0000
     1.0000   1.0000   1.0000   1.0000   1.0000   1.0000   1.0000   1.0000
     1.0000   1.0000   1.0000   1.0000   1.0000   1.0785   1.0831   1.0831
     0.7995   0.0049   0.0000   0.0000   0.0000   0.0000   0.0000   0.0000
     0.0000   0.0000   0.0000   0.0000   0.0000

          k = 0.0000 0.1988 0.0000 (203225 PWs)   bands (ev):

   -48.6070 -48.6055 -48.6054 -48.6040 -48.4365 -48.4361 -48.4342 -48.4338
   -48.4248 -48.4244 -48.4241 -48.4237 -48.1930 -48.1869 -48.1863 -48.1853
   -48.1765 -48.1722 -48.1709 -48.1672  -4.8694  -4.2176  -3.7853  -3.4125
    -3.0643  -2.5393  -2.4450  -2.4449  -2.1689  -2.1237  -1.8089  -1.8087
    -1.5274  -1.5083  -1.5079  -1.3558  -1.0486  -1.0478  -1.0205  -0.5025
    -0.4518  -0.4511  -0.2634  -0.0866   0.0498

     occupation numbers 
     1.0000   1.0000   1.0000   1.0000   1.0000   1.0000   1.0000   1.0000
     1.0000   1.0000   1.0000   1.0000   1.0000   1.0000   1.0000   1.0000
     1.0000   1.0000   1.0000   1.0000   1.0000   1.0000   1.0000   1.0000
     1.0000   1.0000   1.0000   1.0000   1.0000   1.0002   1.0596   1.0594
     0.0371   0.0225   0.0223   0.0001   0.0000   0.0000   0.0000   0.0000
     0.0000   0.0000   0.0000   0.0000   0.0000

          k = 0.0000 0.2981 0.0000 (203169 PWs)   bands (ev):

   -48.6070 -48.6055 -48.6054 -48.6040 -48.4365 -48.4361 -48.4342 -48.4338
   -48.4248 -48.4244 -48.4241 -48.4237 -48.1927 -48.1869 -48.1863 -48.1859
   -48.1761 -48.1722 -48.1709 -48.1673  -4.7499  -4.1323  -4.0534  -3.4066
    -3.2574  -2.5303  -2.3941  -2.3392  -2.3391  -1.7986  -1.7984  -1.7416
    -1.7048  -1.7045  -1.6425  -1.1337  -1.1330  -1.0993  -0.8893  -0.3825
    -0.3699  -0.3692  -0.2825   0.1181   0.1958

     occupation numbers 
     1.0000   1.0000   1.0000   1.0000   1.0000   1.0000   1.0000   1.0000
     1.0000   1.0000   1.0000   1.0000   1.0000   1.0000   1.0000   1.0000
     1.0000   1.0000   1.0000   1.0000   1.0000   1.0000   1.0000   1.0000
     1.0000   1.0000   1.0000   1.0000   1.0000   1.0431   1.0428   0.8594
     0.6724   0.6712   0.3420   0.0000   0.0000   0.0000   0.0000   0.0000
     0.0000   0.0000   0.0000   0.0000   0.0000

          k = 0.0000 0.3975 0.0000 (203234 PWs)   bands (ev):

   -48.6070 -48.6055 -48.6054 -48.6040 -48.4365 -48.4361 -48.4342 -48.4338
   -48.4248 -48.4244 -48.4241 -48.4237 -48.1924 -48.1869 -48.1863 -48.1863
   -48.1759 -48.1722 -48.1709 -48.1673  -4.5839  -4.3648  -3.9062  -3.6743
    -3.0722  -2.8250  -2.2211  -2.1977  -2.1975  -1.9899  -1.9898  -1.9747
    -1.6758  -1.6756  -1.3006  -1.2066  -1.2059  -1.0108  -0.6570  -0.5063
    -0.3156  -0.3149  -0.1732   0.1310   0.2758

     occupation numbers 
     1.0000   1.0000   1.0000   1.0000   1.0000   1.0000   1.0000   1.0000
     1.0000   1.0000   1.0000   1.0000   1.0000   1.0000   1.0000   1.0000
     1.0000   1.0000   1.0000   1.0000   1.0000   1.0000   1.0000   1.0000
     1.0000   1.0000   1.0000   1.0000   1.0000   1.0117   1.0117   1.0166
     0.5127   0.5116   0.0000   0.0000   0.0000   0.0000   0.0000   0.0000
     0.0000   0.0000   0.0000   0.0000   0.0000

          k = 0.1000 0.0000 0.0000 (203333 PWs)   bands (ev):

   -48.6069 -48.6055 -48.6054 -48.6040 -48.4364 -48.4360 -48.4343 -48.4338
   -48.4248 -48.4244 -48.4242 -48.4237 -48.1932 -48.1874 -48.1859 -48.1845
   -48.1769 -48.1726 -48.1706 -48.1672  -4.9410  -4.2923  -3.4930  -3.0196
    -2.9932  -2.9926  -2.6172  -2.2979  -2.2710  -2.2373  -2.0223  -1.5539
    -1.4864  -1.2983  -1.2928  -1.2683  -1.1929  -1.1722  -0.8627  -0.6706
    -0.6644  -0.5855  -0.2991  -0.2077  -0.0586

     occupation numbers 
     1.0000   1.0000   1.0000   1.0000   1.0000   1.0000   1.0000   1.0000
     1.0000   1.0000   1.0000   1.0000   1.0000   1.0000   1.0000   1.0000
     1.0000   1.0000   1.0000   1.0000   1.0000   1.0000   1.0000   1.0000
     1.0000   1.0000   1.0000   1.0000   1.0000   1.0000   1.0050   0.0697
     0.0122   0.0000   0.0000   0.0000   0.0000   0.0000   0.0000   0.0000
     0.0000   0.0000   0.0000   0.0000   0.0000

          k = 0.1000 0.0994 0.0000 (203258 PWs)   bands (ev):

   -48.6069 -48.6055 -48.6054 -48.6040 -48.4364 -48.4360 -48.4343 -48.4338
   -48.4248 -48.4244 -48.4242 -48.4237 -48.1931 -48.1874 -48.1859 -48.1847
   -48.1768 -48.1726 -48.1706 -48.1672  -4.9170  -4.2670  -3.4656  -3.4061
    -2.9708  -2.6726  -2.5922  -2.5596  -2.2777  -2.0025  -1.8410  -1.7024
    -1.5993  -1.5324  -1.4280  -1.2314  -1.0571  -0.9149  -0.8267  -0.7304
    -0.6621  -0.5014  -0.4537  -0.0689  -0.0602

     occupation numbers 
     1.0000   1.0000   1.0000   1.0000   1.0000   1.0000   1.0000   1.0000
     1.0000   1.0000   1.0000   1.0000   1.0000   1.0000   1.0000   1.0000
     1.0000   1.0000   1.0000   1.0000   1.0000   1.0000   1.0000   1.0000
     1.0000   1.0000   1.0000   1.0000   1.0000   1.0086   1.0828   0.6595
     0.1734   0.0421   0.0018   0.0000   0.0000   0.0000   0.0000   0.0000
     0.0000   0.0000   0.0000   0.0000   0.0000

          k = 0.1000 0.1988 0.0000 (203264 PWs)   bands (ev):

   -48.6069 -48.6055 -48.6054 -48.6040 -48.4364 -48.4360 -48.4343 -48.4338
   -48.4248 -48.4244 -48.4242 -48.4237 -48.1928 -48.1873 -48.1859 -48.1852
   -48.1765 -48.1726 -48.1706 -48.1673  -4.8452  -4.1919  -3.7610  -3.3846
    -3.0387  -2.9037  -2.5103  -2.2196  -2.1412  -2.0981  -1.9438  -1.8992
    -1.5105  -1.4979  -1.3628  -1.3297  -1.1060  -0.9928  -0.9504  -0.5920
    -0.4719  -0.3139  -0.2357  -0.0574  -0.0320

     occupation numbers 
     1.0000   1.0000   1.0000   1.0000   1.0000   1.0000   1.0000   1.0000
     1.0000   1.0000   1.0000   1.0000   1.0000   1.0000   1.0000   1.0000
     1.0000   1.0000   1.0000   1.0000   1.0000   1.0000   1.0000   1.0000
     1.0000   1.0000   1.0000   1.0000   1.0001   1.0004   1.0308   1.0599
     0.0239   0.0169   0.0001   0.0000   0.0000   0.0000   0.0000   0.0000
     0.0000   0.0000   0.0000   0.0000   0.0000

          k = 0.1000 0.2981 0.0000 (203250 PWs)   bands (ev):

   -48.6069 -48.6055 -48.6054 -48.6040 -48.4364 -48.4360 -48.4343 -48.4338
   -48.4248 -48.4244 -48.4242 -48.4237 -48.1926 -48.1873 -48.1860 -48.1858
   -48.1761 -48.1726 -48.1706 -48.1673  -4.7257  -4.1078  -4.0281  -3.3813
    -3.2292  -2.7926  -2.5026  -2.3648  -2.2081  -2.0907  -1.8495  -1.7124
    -1.6151  -1.5846  -1.4438  -1.2746  -1.0720  -0.9106  -0.8622  -0.5922
    -0.3522  -0.2542  -0.1756   0.0693   0.1470

     occupation numbers 
     1.0000   1.0000   1.0000   1.0000   1.0000   1.0000   1.0000   1.0000
     1.0000   1.0000   1.0000   1.0000   1.0000   1.0000   1.0000   1.0000
     1.0000   1.0000   1.0000   1.0000   1.0000   1.0000   1.0000   1.0000
     1.0000   1.0000   1.0000   1.0000   1.0000   1.0006   1.0832   0.7139
     0.2269   0.1321   0.0032   0.0000   0.0000   0.0000   0.0000   0.0000
     0.0000   0.0000   0.0000   0.0000   0.0000

          k = 0.1000 0.3975 0.0000 (203200 PWs)   bands (ev):

   -48.6069 -48.6055 -48.6054 -48.6040 -48.4365 -48.4360 -48.4343 -48.4338
   -48.4248 -48.4244 -48.4242 -48.4237 -48.1923 -48.1873 -48.1862 -48.1860
   -48.1759 -48.1726 -48.1706 -48.1674  -4.5598  -4.3407  -3.8806  -3.6488
    -3.0442  -2.7970  -2.6415  -2.4273  -2.1916  -1.9875  -1.9457  -1.7690
    -1.7096  -1.5276  -1.3355  -1.2709  -0.9833  -0.8785  -0.6296  -0.6200
    -0.4783  -0.1725  -0.1430   0.1608   0.2098

     occupation numbers 
     1.0000   1.0000   1.0000   1.0000   1.0000   1.0000   1.0000   1.0000
     1.0000   1.0000   1.0000   1.0000   1.0000   1.0000   1.0000   1.0000
     1.0000   1.0000   1.0000   1.0000   1.0000   1.0000   1.0000   1.0000
     1.0000   1.0000   1.0000   1.0000   1.0000   1.0124   1.0298   0.9670
     0.6989   0.0373   0.0000   0.0000   0.0000   0.0000   0.0000   0.0000
     0.0000   0.0000   0.0000   0.0000   0.0000

          k = 0.2000 0.0000 0.0000 (203263 PWs)   bands (ev):

   -48.6068 -48.6056 -48.6054 -48.6041 -48.4363 -48.4358 -48.4344 -48.4340
   -48.4248 -48.4244 -48.4242 -48.4238 -48.1928 -48.1882 -48.1854 -48.1845
   -48.1767 -48.1733 -48.1700 -48.1673  -4.8682  -4.2152  -3.4090  -3.4080
    -2.9455  -2.9203  -2.7062  -2.5302  -2.1938  -2.1628  -1.8206  -1.5814
    -1.5717  -1.4849  -1.3993  -1.2093  -1.1129  -1.0022  -0.9589  -0.8264
    -0.6694  -0.5720  -0.2104  -0.1224  -0.0239

     occupation numbers 
     1.0000   1.0000   1.0000   1.0000   1.0000   1.0000   1.0000   1.0000
     1.0000   1.0000   1.0000   1.0000   1.0000   1.0000   1.0000   1.0000
     1.0000   1.0000   1.0000   1.0000   1.0000   1.0000   1.0000   1.0000
     1.0000   1.0000   1.0000   1.0000   1.0000   1.0000   1.0727   0.1239
     0.1021   0.0116   0.0006   0.0000   0.0000   0.0000   0.0000   0.0000
     0.0000   0.0000   0.0000   0.0000   0.0000

          k = 0.2000 0.0994 0.0000 (203259 PWs)   bands (ev):

   -48.6068 -48.6056 -48.6054 -48.6041 -48.4363 -48.4358 -48.4344 -48.4340
   -48.4248 -48.4244 -48.4242 -48.4238 -48.1928 -48.1882 -48.1854 -48.1847
   -48.1766 -48.1733 -48.1700 -48.1674  -4.8443  -4.1899  -3.3850  -3.3816
    -3.3333  -2.6839  -2.5961  -2.5077  -2.4837  -1.9425  -1.7995  -1.7614
    -1.6230  -1.4716  -1.3410  -1.2823  -1.1975  -0.8455  -0.7615  -0.7431
    -0.6412  -0.5880  -0.3701  -0.0956   0.0245

     occupation numbers 
     1.0000   1.0000   1.0000   1.0000   1.0000   1.0000   1.0000   1.0000
     1.0000   1.0000   1.0000   1.0000   1.0000   1.0000   1.0000   1.0000
     1.0000   1.0000   1.0000   1.0000   1.0000   1.0000   1.0000   1.0000
     1.0000   1.0000   1.0000   1.0000   1.0000   1.0316   1.0448   0.9407
     0.2577   0.0078   0.0001   0.0000   0.0000   0.0000   0.0000   0.0000
     0.0000   0.0000   0.0000   0.0000   0.0000

          k = 0.2000 0.1988 0.0000 (203186 PWs)   bands (ev):

   -48.6068 -48.6056 -48.6054 -48.6041 -48.4363 -48.4358 -48.4344 -48.4340
   -48.4248 -48.4243 -48.4242 -48.4238 -48.1925 -48.1881 -48.1855 -48.1852
   -48.1763 -48.1732 -48.1700 -48.1674  -4.7726  -4.1151  -3.6882  -3.3161
    -3.3012  -2.9621  -2.6191  -2.4234  -2.2733  -2.0584  -2.0215  -1.7450
    -1.5848  -1.4161  -1.4095  -1.2520  -0.9101  -0.9006  -0.8614  -0.7344
    -0.3803  -0.3618  -0.1992  -0.1536   0.0296

     occupation numbers 
     1.0000   1.0000   1.0000   1.0000   1.0000   1.0000   1.0000   1.0000
     1.0000   1.0000   1.0000   1.0000   1.0000   1.0000   1.0000   1.0000
     1.0000   1.0000   1.0000   1.0000   1.0000   1.0000   1.0000   1.0000
     1.0000   1.0000   1.0000   1.0000   1.0000   1.0017   1.0052   0.8745
     0.1326   0.0012   0.0009   0.0000   0.0000   0.0000   0.0000   0.0000
     0.0000   0.0000   0.0000   0.0000   0.0000

          k = 0.2000 0.2981 0.0000 (203209 PWs)   bands (ev):

   -48.6068 -48.6056 -48.6054 -48.6041 -48.4363 -48.4359 -48.4344 -48.4340
   -48.4248 -48.4243 -48.4242 -48.4238 -48.1923 -48.1880 -48.1857 -48.1856
   -48.1760 -48.1732 -48.1700 -48.1675  -4.6532  -4.0345  -3.9520  -3.3055
    -3.2019  -3.1448  -2.5998  -2.4743  -2.4197  -2.2770  -1.8808  -1.6253
    -1.6229  -1.5332  -1.3553  -0.9905  -0.9682  -0.8898  -0.7816  -0.5709
    -0.2641  -0.2619  -0.1699  -0.1191   0.2324

     occupation numbers 
     1.0000   1.0000   1.0000   1.0000   1.0000   1.0000   1.0000   1.0000
     1.0000   1.0000   1.0000   1.0000   1.0000   1.0000   1.0000   1.0000
     1.0000   1.0000   1.0000   1.0000   1.0000   1.0000   1.0000   1.0000
     1.0000   1.0000   1.0000   1.0000   1.0000   1.0000   1.0717   0.2667
     0.2572   0.0429   0.0001   0.0000   0.0000   0.0000   0.0000   0.0000
     0.0000   0.0000   0.0000   0.0000   0.0000

          k = 0.2000 0.3975 0.0000 (203166 PWs)   bands (ev):

   -48.6068 -48.6056 -48.6054 -48.6041 -48.4363 -48.4359 -48.4344 -48.4340
   -48.4248 -48.4243 -48.4242 -48.4238 -48.1921 -48.1880 -48.1861 -48.1856
   -48.1758 -48.1732 -48.1700 -48.1675  -4.4874  -4.2682  -3.8042  -3.5721
    -3.0452  -2.9604  -2.8281  -2.7135  -2.3472  -2.1054  -2.1031  -1.8587
    -1.5232  -1.3199  -1.1820  -1.0505  -0.9733  -0.9013  -0.5486  -0.4452
    -0.3948  -0.2958  -0.0527   0.0297   0.1277

     occupation numbers 
     1.0000   1.0000   1.0000   1.0000   1.0000   1.0000   1.0000   1.0000
     1.0000   1.0000   1.0000   1.0000   1.0000   1.0000   1.0000   1.0000
     1.0000   1.0000   1.0000   1.0000   1.0000   1.0000   1.0000   1.0000
     1.0000   1.0000   1.0000   1.0000   1.0000   1.0003   1.0004   1.0816
     0.0334   0.0000   0.0000   0.0000   0.0000   0.0000   0.0000   0.0000
     0.0000   0.0000   0.0000   0.0000   0.0000

          k = 0.3000 0.0000 0.0000 (203139 PWs)   bands (ev):

   -48.6067 -48.6057 -48.6052 -48.6043 -48.4360 -48.4356 -48.4347 -48.4343
   -48.4247 -48.4243 -48.4243 -48.4238 -48.1923 -48.1891 -48.1851 -48.1845
   -48.1764 -48.1740 -48.1694 -48.1676  -4.7470  -4.0868  -3.7739  -3.2694
    -3.0759  -2.8228  -2.8006  -2.3856  -2.1897  -2.0663  -2.0402  -1.8878
    -1.8864  -1.2878  -1.2548  -1.1778  -1.1582  -1.0722  -0.9822  -0.8282
    -0.4572  -0.4184  -0.1120  -0.0817  -0.0649

     occupation numbers 
     1.0000   1.0000   1.0000   1.0000   1.0000   1.0000   1.0000   1.0000
     1.0000   1.0000   1.0000   1.0000   1.0000   1.0000   1.0000   1.0000
     1.0000   1.0000   1.0000   1.0000   1.0000   1.0000   1.0000   1.0000
     1.0000   1.0000   1.0000   1.0000   1.0000   1.0013   1.0030   1.0674
     1.0684   0.0000   0.0000   0.0000   0.0000   0.0000   0.0000   0.0000
     0.0000   0.0000   0.0000   0.0000   0.0000

          k = 0.3000 0.0994 0.0000 (203174 PWs)   bands (ev):

   -48.6067 -48.6057 -48.6052 -48.6043 -48.4360 -48.4356 -48.4347 -48.4343
   -48.4247 -48.4243 -48.4243 -48.4238 -48.1923 -48.1890 -48.1851 -48.1847
   -48.1763 -48.1740 -48.1694 -48.1676  -4.7231  -4.0617  -3.7505  -3.2423
    -3.2124  -3.0524  -2.4697  -2.3739  -2.3514  -2.2740  -2.1657  -1.6309
    -1.5432  -1.4921  -1.4652  -1.2639  -1.1966  -0.8796  -0.7523  -0.6065
    -0.5652  -0.4944  -0.2332  -0.1178  -0.0204

     occupation numbers 
     1.0000   1.0000   1.0000   1.0000   1.0000   1.0000   1.0000   1.0000
     1.0000   1.0000   1.0000   1.0000   1.0000   1.0000   1.0000   1.0000
     1.0000   1.0000   1.0000   1.0000   1.0000   1.0000   1.0000   1.0000
     1.0000   1.0000   1.0000   1.0000   1.0000   1.0000   1.0000   0.2904
     0.0544   0.0143   0.0064   0.0000   0.0000   0.0000   0.0000   0.0000
     0.0000   0.0000   0.0000   0.0000   0.0000

          k = 0.3000 0.1988 0.0000 (203207 PWs)   bands (ev):

   -48.6067 -48.6057 -48.6052 -48.6043 -48.4360 -48.4356 -48.4347 -48.4343
   -48.4247 -48.4243 -48.4243 -48.4238 -48.1921 -48.1889 -48.1852 -48.1851
   -48.1760 -48.1739 -48.1694 -48.1676  -4.6514  -3.9874  -3.6805  -3.5673
    -3.1627  -2.9839  -2.8352  -2.6171  -2.2789  -2.1018  -1.9225  -1.8949
    -1.8757  -1.2629  -1.1940  -1.1245  -1.0416  -1.0201  -0.7742  -0.6426
    -0.3892  -0.2287  -0.1577  -0.0214   0.0246

     occupation numbers 
     1.0000   1.0000   1.0000   1.0000   1.0000   1.0000   1.0000   1.0000
     1.0000   1.0000   1.0000   1.0000   1.0000   1.0000   1.0000   1.0000
     1.0000   1.0000   1.0000   1.0000   1.0000   1.0000   1.0000   1.0000
     1.0000   1.0000   1.0000   1.0000   1.0000   1.0004   1.0439   1.0628
     1.0746   0.0000   0.0000   0.0000   0.0000   0.0000   0.0000   0.0000
     0.0000   0.0000   0.0000   0.0000   0.0000

          k = 0.3000 0.2981 0.0000 (203169 PWs)   bands (ev):

   -48.6067 -48.6057 -48.6052 -48.6043 -48.4360 -48.4356 -48.4347 -48.4343
   -48.4247 -48.4243 -48.4243 -48.4238 -48.1918 -48.1888 -48.1856 -48.1854
   -48.1758 -48.1739 -48.1694 -48.1677  -4.5322  -3.9128  -3.8255  -3.5642
    -3.1798  -3.0048  -2.9525  -2.8317  -2.2825  -2.2122  -2.1312  -1.9449
    -1.4816  -1.3979  -1.2931  -1.0817  -0.8563  -0.6505  -0.6358  -0.6242
    -0.3006  -0.1194  -0.1137  -0.0310   0.0476

     occupation numbers 
     1.0000   1.0000   1.0000   1.0000   1.0000   1.0000   1.0000   1.0000
     1.0000   1.0000   1.0000   1.0000   1.0000   1.0000   1.0000   1.0000
     1.0000   1.0000   1.0000   1.0000   1.0000   1.0000   1.0000   1.0000
     1.0000   1.0000   1.0000   1.0000   1.0000   1.0000   1.0001   1.0302
     0.0105   0.0006   0.0000   0.0000   0.0000   0.0000   0.0000   0.0000
     0.0000   0.0000   0.0000   0.0000   0.0000

          k = 0.3000 0.3975 0.0000 (203179 PWs)   bands (ev):

   -48.6067 -48.6057 -48.6052 -48.6043 -48.4360 -48.4356 -48.4347 -48.4343
   -48.4247 -48.4243 -48.4243 -48.4238 -48.1916 -48.1888 -48.1859 -48.1855
   -48.1756 -48.1739 -48.1694 -48.1677  -4.3668  -4.1474  -3.6774  -3.4449
    -3.4041  -3.1855  -2.8217  -2.6932  -2.5749  -2.4554  -1.9562  -1.7954
    -1.7145  -1.5281  -1.0352  -0.9583  -0.7665  -0.6746  -0.4843  -0.4174
    -0.2902  -0.2575  -0.0087   0.0963   0.1053

     occupation numbers 
     1.0000   1.0000   1.0000   1.0000   1.0000   1.0000   1.0000   1.0000
     1.0000   1.0000   1.0000   1.0000   1.0000   1.0000   1.0000   1.0000
     1.0000   1.0000   1.0000   1.0000   1.0000   1.0000   1.0000   1.0000
     1.0000   1.0000   1.0000   1.0000   1.0000   1.0000   1.0244   1.0369
     0.7248   0.0378   0.0000   0.0000   0.0000   0.0000   0.0000   0.0000
     0.0000   0.0000   0.0000   0.0000   0.0000

          k = 0.4000 0.0000 0.0000 (203087 PWs)   bands (ev):

   -48.6064 -48.6059 -48.6050 -48.6045 -48.4357 -48.4353 -48.4350 -48.4346
   -48.4246 -48.4244 -48.4242 -48.4239 -48.1916 -48.1900 -48.1848 -48.1846
   -48.1759 -48.1747 -48.1688 -48.1679  -4.5770  -4.0906  -3.9079  -3.4011
    -3.0753  -2.6525  -2.6346  -2.5310  -2.1840  -2.1794  -2.1734  -1.8910
    -1.8721  -1.6192  -1.4242  -1.4200  -1.0546  -0.8864  -0.8064  -0.5290
    -0.4926  -0.3836  -0.2044  -0.0601   0.1310

     occupation numbers 
     1.0000   1.0000   1.0000   1.0000   1.0000   1.0000   1.0000   1.0000
     1.0000   1.0000   1.0000   1.0000   1.0000   1.0000   1.0000   1.0000
     1.0000   1.0000   1.0000   1.0000   1.0000   1.0000   1.0000   1.0000
     1.0000   1.0000   1.0000   1.0000   1.0000   1.0000   1.0000   1.0654
     1.0764   0.2427   0.0016   0.0014   0.0000   0.0000   0.0000   0.0000
     0.0000   0.0000   0.0000   0.0000   0.0000

          k = 0.4000 0.0994 0.0000 (203147 PWs)   bands (ev):

   -48.6064 -48.6059 -48.6050 -48.6045 -48.4357 -48.4353 -48.4350 -48.4346
   -48.4246 -48.4244 -48.4242 -48.4239 -48.1916 -48.1899 -48.1849 -48.1847
   -48.1758 -48.1747 -48.1688 -48.1679  -4.5532  -4.0670  -3.8829  -3.3769
    -3.0489  -3.0438  -2.5723  -2.5054  -2.2956  -2.2015  -2.1544  -1.8213
    -1.7396  -1.5926  -1.4538  -1.3124  -1.0005  -0.9962  -0.8585  -0.4500
    -0.4237  -0.2947  -0.2075  -0.0480   0.0509

     occupation numbers 
     1.0000   1.0000   1.0000   1.0000   1.0000   1.0000   1.0000   1.0000
     1.0000   1.0000   1.0000   1.0000   1.0000   1.0000   1.0000   1.0000
     1.0000   1.0000   1.0000   1.0000   1.0000   1.0000   1.0000   1.0000
     1.0000   1.0000   1.0000   1.0000   1.0000   1.0000   1.0000   1.0732
     0.8504   0.1536   0.0044   0.0000   0.0000   0.0000   0.0000   0.0000
     0.0000   0.0000   0.0000   0.0000   0.0000

          k = 0.4000 0.1988 0.0000 (203116 PWs)   bands (ev):

   -48.6064 -48.6059 -48.6050 -48.6045 -48.4357 -48.4353 -48.4350 -48.4346
   -48.4246 -48.4244 -48.4242 -48.4239 -48.1914 -48.1898 -48.1851 -48.1850
   -48.1756 -48.1746 -48.1688 -48.1679  -4.4817  -3.9963  -3.8093  -3.3986
    -3.3059  -2.9705  -2.9217  -2.6592  -2.4347  -2.1718  -2.0778  -1.7386
    -1.7182  -1.5178  -1.2736  -1.2309  -1.0602  -0.9515  -0.5899  -0.5470
    -0.5009  -0.2149  -0.0198   0.0703   0.1494

     occupation numbers 
     1.0000   1.0000   1.0000   1.0000   1.0000   1.0000   1.0000   1.0000
     1.0000   1.0000   1.0000   1.0000   1.0000   1.0000   1.0000   1.0000
     1.0000   1.0000   1.0000   1.0000   1.0000   1.0000   1.0000   1.0000
     1.0000   1.0000   1.0000   1.0000   1.0000   1.0000   1.0009   0.8457
     0.7447   0.0291   0.0000   0.0000   0.0000   0.0000   0.0000   0.0000
     0.0000   0.0000   0.0000   0.0000   0.0000

          k = 0.4000 0.2981 0.0000 (203047 PWs)   bands (ev):

   -48.6064 -48.6059 -48.6050 -48.6045 -48.4357 -48.4353 -48.4350 -48.4346
   -48.4246 -48.4244 -48.4242 -48.4239 -48.1912 -48.1897 -48.1854 -48.1853
   -48.1754 -48.1745 -48.1688 -48.1680  -4.3628  -3.8787  -3.7430  -3.6489
    -3.2619  -3.1498  -3.0052  -2.8106  -2.5174  -2.2719  -2.0932  -1.9284
    -1.5792  -1.3697  -1.2853  -1.2107  -0.7977  -0.7012  -0.6725  -0.4761
    -0.2098  -0.1380   0.0585   0.0847   0.1593

     occupation numbers 
     1.0000   1.0000   1.0000   1.0000   1.0000   1.0000   1.0000   1.0000
     1.0000   1.0000   1.0000   1.0000   1.0000   1.0000   1.0000   1.0000
     1.0000   1.0000   1.0000   1.0000   1.0000   1.0000   1.0000   1.0000
     1.0000   1.0000   1.0000   1.0000   1.0000   1.0000   1.0005   1.0401
     0.1187   0.0002   0.0000   0.0000   0.0000   0.0000   0.0000   0.0000
     0.0000   0.0000   0.0000   0.0000   0.0000

          k = 0.4000 0.3975 0.0000 (203101 PWs)   bands (ev):

   -48.6064 -48.6059 -48.6050 -48.6045 -48.4357 -48.4353 -48.4350 -48.4346
   -48.4246 -48.4244 -48.4242 -48.4239 -48.1910 -48.1896 -48.1857 -48.1854
   -48.1753 -48.1745 -48.1688 -48.1680  -4.1980  -3.9784  -3.7163  -3.5009
    -3.4970  -3.2679  -3.0057  -2.7703  -2.6297  -2.3828  -2.1033  -1.8504
    -1.7521  -1.5146  -1.1968  -0.9703  -0.8332  -0.5828  -0.3278  -0.2455
    -0.1483  -0.0710  -0.0009   0.0737   0.2991

     occupation numbers 
     1.0000   1.0000   1.0000   1.0000   1.0000   1.0000   1.0000   1.0000
     1.0000   1.0000   1.0000   1.0000   1.0000   1.0000   1.0000   1.0000
     1.0000   1.0000   1.0000   1.0000   1.0000   1.0000   1.0000   1.0000
     1.0000   1.0000   1.0000   1.0000   1.0000   1.0000   1.0004   1.0832
     0.9046   0.0267   0.0000   0.0000   0.0000   0.0000   0.0000   0.0000
     0.0000   0.0000   0.0000   0.0000   0.0000

          k =-0.5000 0.0000 0.0000 (203092 PWs)   bands (ev):

   -48.6063 -48.6061 -48.6048 -48.6048 -48.4354 -48.4353 -48.4349 -48.4349
   -48.4245 -48.4245 -48.4241 -48.4240 -48.1908 -48.1908 -48.1846 -48.1846
   -48.1754 -48.1753 -48.1683 -48.1683  -4.3583  -4.3583  -3.6789  -3.6789
    -2.8282  -2.8282  -2.4369  -2.4369  -2.4244  -2.4244  -1.9270  -1.9270
    -1.6724  -1.6724  -1.6635  -1.6635  -0.8032  -0.8032  -0.6657  -0.6657
    -0.5983  -0.5983   0.0680   0.0681   0.2935

     occupation numbers 
[...]
     1.0000   1.0000   1.0000   1.0000   1.0000   1.0000   1.0001   1.0001
     0.0154   0.0154   0.0000   0.0000   0.0000   0.0000   0.0000   0.0000
     0.0000   0.0000   0.0000   0.0000   0.0000

     the Fermi energy is    -1.6548 ev

!    total energy              =    -300.85242592 Ry
     total all-electron energy =      -300.852588 Ry
     estimated scf accuracy    <       0.00000003 Ry

!    total charge of GC-SCF    =      -4.89830199 e
     smearing contrib. (-TS)   =       0.00037119 Ry
     internal energy E=F+TS    =    -300.85279711 Ry

     The total energy is F=E-TS. E is the sum of the following terms:
     one-electron contribution =   -2963.92044328 Ry
     hartree contribution      =    1452.15447880 Ry
     xc contribution           =     -72.97751276 Ry
     ewald contribution        =    1152.38777360 Ry
     one-center paw contrib.   =       1.76522960 Ry
      -> PAW hartree energy AE =       7.41357624 Ry
      -> PAW hartree energy PS =      -7.19060108 Ry
      -> PAW xc energy AE      =      -3.48177401 Ry
      -> PAW xc energy PS      =       3.34713425 Ry
      -> total E_H with PAW    =    1452.37745396 Ry
      -> total E_XC with PAW   =     -73.11215252 Ry
     pot.stat. contrib. (-muN) =       0.59547069 Ry
     electrostatic embedding   =      -5.09956403 Ry
     cavitation energy         =       0.02127567 Ry
     electrolyte free energy   =      -0.08694906 Ry
     correction to one-el term =     134.30744365 Ry

     WARNING: you are using the parabolic pbc correction;
              the potential shift above must be added to 
              band and Fermi energies.

     convergence has been achieved in   4 iterations
     The dielectric solvent contribution to forces
     atom    1 type  1   force =     0.00000000   -0.00802951   -0.11002206
     atom    2 type  1   force =     0.00000000    0.00352909   -0.00058739
     atom    3 type  1   force =     0.00000000    0.00885954    0.03738214
     atom    4 type  1   force =     0.00000000   -0.03465259    0.09573056
     atom    5 type  1   force =    -0.00000000   -0.01618839   -0.03723640
     atom    6 type  1   force =     0.00000010   -0.00353352    0.00054076
     atom    7 type  1   force =    -0.00000036    0.00802315    0.10998372
     atom    8 type  1   force =    -0.00000036    0.01625500    0.03723135
     atom    9 type  1   force =     0.00000027    0.03463944   -0.09580388
     atom   10 type  1   force =    -0.00000001   -0.00882721   -0.03735347
     atom   11 type  1   force =    -0.00000000   -0.00802980   -0.11002198
     atom   12 type  1   force =    -0.00000000    0.00352887   -0.00058680
     atom   13 type  1   force =    -0.00000000    0.00885998    0.03738302
     atom   14 type  1   force =    -0.00000000   -0.03465287    0.09572986
     atom   15 type  1   force =    -0.00000000   -0.01618828   -0.03723220
     atom   16 type  1   force =    -0.00000010   -0.00353352    0.00054076
     atom   17 type  1   force =     0.00000035    0.00802315    0.10998372
     atom   18 type  1   force =     0.00000036    0.01625500    0.03723136
     atom   19 type  1   force =    -0.00000028    0.03463944   -0.09580388
     atom   20 type  1   force =     0.00000001   -0.00882721   -0.03735347


     Forces acting on atoms (cartesian axes, Ry/au):

     atom    1 type  1   force =     0.00000000   -0.00019988   -0.00008668
     atom    2 type  1   force =     0.00000000    0.00037840    0.00010494
     atom    3 type  1   force =     0.00000000    0.00015149    0.00037806
     atom    4 type  1   force =     0.00000000    0.00011893    0.00031972
     atom    5 type  1   force =     0.00000000   -0.00024256   -0.00007851
     atom    6 type  1   force =    -0.00000013   -0.00038207   -0.00010247
     atom    7 type  1   force =     0.00000066    0.00021153    0.00009204
     atom    8 type  1   force =     0.00000001    0.00028155   -0.00002910
     atom    9 type  1   force =     0.00000003   -0.00010149   -0.00032549
     atom   10 type  1   force =     0.00000129   -0.00021583   -0.00027237
     atom   11 type  1   force =     0.00000000   -0.00020001   -0.00008669
     atom   12 type  1   force =     0.00000000    0.00037885    0.00010482
     atom   13 type  1   force =     0.00000000    0.00015028    0.00037970
     atom   14 type  1   force =     0.00000000    0.00011935    0.00031973
     atom   15 type  1   force =     0.00000000   -0.00024225   -0.00008033
     atom   16 type  1   force =     0.00000013   -0.00038207   -0.00010247
     atom   17 type  1   force =    -0.00000066    0.00021153    0.00009204
     atom   18 type  1   force =    -0.00000001    0.00028155   -0.00002910
     atom   19 type  1   force =    -0.00000003   -0.00010149   -0.00032549
     atom   20 type  1   force =    -0.00000129   -0.00021583   -0.00027237
     The non-local contrib.  to forces
     atom    1 type  1   force =     0.00000000    0.00026839    0.02930495
     atom    2 type  1   force =     0.00000000   -0.00043743   -0.00075304
     atom    3 type  1   force =     0.00000000   -0.00215823    0.00481413
     atom    4 type  1   force =     0.00000000    0.01064388   -0.02393500
     atom    5 type  1   force =     0.00000000    0.00896716    0.03295496
     atom    6 type  1   force =    -0.00000089    0.00047988    0.00076696
     atom    7 type  1   force =     0.00000088   -0.00031764   -0.02929396
     atom    8 type  1   force =    -0.00000007   -0.00898514   -0.03304432
     atom    9 type  1   force =     0.00000010   -0.01056973    0.02390141
     atom   10 type  1   force =     0.00000165    0.00212221   -0.00478598
     atom   11 type  1   force =     0.00000000    0.00026712    0.02930493
     atom   12 type  1   force =     0.00000000   -0.00043548   -0.00075304
     atom   13 type  1   force =     0.00000000   -0.00215909    0.00481411
     atom   14 type  1   force =     0.00000000    0.01064508   -0.02393608
     atom   15 type  1   force =     0.00000000    0.00896728    0.03295435
     atom   16 type  1   force =     0.00000089    0.00047988    0.00076696
     atom   17 type  1   force =    -0.00000088   -0.00031764   -0.02929396
     atom   18 type  1   force =     0.00000007   -0.00898514   -0.03304432
     atom   19 type  1   force =    -0.00000010   -0.01056973    0.02390141
     atom   20 type  1   force =    -0.00000165    0.00212221   -0.00478598
     The ionic contribution  to forces
     atom    1 type  1   force =    -0.00000002    0.10701583    5.75128298
     atom    2 type  1   force =    -0.00000002   -0.06525153    0.43464444
     atom    3 type  1   force =    -0.00000003   -0.08168104   -2.81150870
     atom    4 type  1   force =    -0.00000002    0.31695651   -6.50134874
     atom    5 type  1   force =    -0.00000001    0.15408194    8.05750940
     atom    6 type  1   force =    -0.00001478    0.06609190   -0.43172273
     atom    7 type  1   force =     0.00001129   -0.10803028   -5.74899532
     atom    8 type  1   force =    -0.00000132   -0.15377085   -8.05861865
     atom    9 type  1   force =    -0.00000031   -0.31524653    6.50102228
     atom   10 type  1   force =     0.00002563    0.07983172    2.80777053
     atom   11 type  1   force =     0.00000001    0.10700119    5.75129063
     atom   12 type  1   force =     0.00000001   -0.06522006    0.43461519
     atom   13 type  1   force =     0.00000002   -0.08171278   -2.81154923
     atom   14 type  1   force =     0.00000001    0.31697144   -6.50138853
     atom   15 type  1   force =     0.00000001    0.15408657    8.05754035
     atom   16 type  1   force =     0.00001479    0.06609190   -0.43172275
     atom   17 type  1   force =    -0.00001129   -0.10803028   -5.74899529
     atom   18 type  1   force =     0.00000132   -0.15377085   -8.05861860
     atom   19 type  1   force =     0.00000032   -0.31524653    6.50102225
     atom   20 type  1   force =    -0.00002563    0.07983173    2.80777047
     The local contribution  to forces
     atom    1 type  1   force =     0.00000349   -0.09943883   -5.67062138
     atom    2 type  1   force =     0.00000349    0.06251516   -0.43314284
     atom    3 type  1   force =     0.00000290    0.07515662    2.76966115
     atom    4 type  1   force =     0.00000407   -0.29286743    6.42980269
     atom    5 type  1   force =     0.00000408   -0.14717703   -8.05320407
     atom    6 type  1   force =     0.00001960   -0.06339518    0.43031652
     atom    7 type  1   force =    -0.00000671    0.10051769    5.66838645
     atom    8 type  1   force =     0.00000652    0.14685241    8.05429066
     atom    9 type  1   force =     0.00000397    0.29111994   -6.42936633
     atom   10 type  1   force =    -0.00002160   -0.07337068   -2.76581893
     atom   11 type  1   force =     0.00000442   -0.09942269   -5.67062907
     atom   12 type  1   force =     0.00000441    0.06248322   -0.43311401
     atom   13 type  1   force =     0.00000557    0.07518766    2.76970166
     atom   14 type  1   force =     0.00000500   -0.29288282    6.42984409
     atom   15 type  1   force =     0.00000384   -0.14718194   -8.05324061
     atom   16 type  1   force =    -0.00001020   -0.06339460    0.43031713
     atom   17 type  1   force =     0.00001554    0.10051769    5.66838585
     atom   18 type  1   force =     0.00000290    0.14685300    8.05428947
     atom   19 type  1   force =     0.00000427    0.29111993   -6.42936572
     atom   20 type  1   force =     0.00003041   -0.07337068   -2.76581771
     The core correction contribution to forces
     atom    1 type  1   force =     0.00000000    0.00000000    0.00000000
     atom    2 type  1   force =     0.00000000    0.00000000    0.00000000
     atom    3 type  1   force =     0.00000000    0.00000000    0.00000000
     atom    4 type  1   force =     0.00000000    0.00000000    0.00000000
     atom    5 type  1   force =     0.00000000    0.00000000    0.00000000
     atom    6 type  1   force =     0.00000000    0.00000000    0.00000000
     atom    7 type  1   force =     0.00000000    0.00000000    0.00000000
     atom    8 type  1   force =     0.00000000    0.00000000    0.00000000
     atom    9 type  1   force =     0.00000000    0.00000000    0.00000000
     atom   10 type  1   force =     0.00000000    0.00000000    0.00000000
     atom   11 type  1   force =     0.00000000    0.00000000    0.00000000
     atom   12 type  1   force =     0.00000000    0.00000000    0.00000000
     atom   13 type  1   force =     0.00000000    0.00000000    0.00000000
     atom   14 type  1   force =     0.00000000    0.00000000    0.00000000
     atom   15 type  1   force =     0.00000000    0.00000000    0.00000000
     atom   16 type  1   force =     0.00000000    0.00000000    0.00000000
     atom   17 type  1   force =     0.00000000    0.00000000    0.00000000
     atom   18 type  1   force =     0.00000000    0.00000000    0.00000000
     atom   19 type  1   force =     0.00000000    0.00000000    0.00000000
     atom   20 type  1   force =     0.00000000    0.00000000    0.00000000
     The Hubbard contrib.    to forces
     atom    1 type  1   force =     0.00000000    0.00000000    0.00000000
     atom    2 type  1   force =     0.00000000    0.00000000    0.00000000
     atom    3 type  1   force =     0.00000000    0.00000000    0.00000000
     atom    4 type  1   force =     0.00000000    0.00000000    0.00000000
     atom    5 type  1   force =     0.00000000    0.00000000    0.00000000
     atom    6 type  1   force =     0.00000000    0.00000000    0.00000000
     atom    7 type  1   force =     0.00000000    0.00000000    0.00000000
     atom    8 type  1   force =     0.00000000    0.00000000    0.00000000
     atom    9 type  1   force =     0.00000000    0.00000000    0.00000000
     atom   10 type  1   force =     0.00000000    0.00000000    0.00000000
     atom   11 type  1   force =     0.00000000    0.00000000    0.00000000
     atom   12 type  1   force =     0.00000000    0.00000000    0.00000000
     atom   13 type  1   force =     0.00000000    0.00000000    0.00000000
     atom   14 type  1   force =     0.00000000    0.00000000    0.00000000
     atom   15 type  1   force =     0.00000000    0.00000000    0.00000000
     atom   16 type  1   force =     0.00000000    0.00000000    0.00000000
     atom   17 type  1   force =     0.00000000    0.00000000    0.00000000
     atom   18 type  1   force =     0.00000000    0.00000000    0.00000000
     atom   19 type  1   force =     0.00000000    0.00000000    0.00000000
     atom   20 type  1   force =     0.00000000    0.00000000    0.00000000
     The SCF correction term to forces
     atom    1 type  1   force =    -0.00000000   -0.00001586   -0.00003766
     atom    2 type  1   force =    -0.00000000    0.00002302   -0.00006272
     atom    3 type  1   force =    -0.00000000   -0.00002548    0.00002286
     atom    4 type  1   force =    -0.00000000    0.00003846    0.00006371
     atom    5 type  1   force =    -0.00000000    0.00007367   -0.00010890
     atom    6 type  1   force =     0.00000055   -0.00002555   -0.00001077
     atom    7 type  1   force =    -0.00000003    0.00001852    0.00000494
     atom    8 type  1   force =    -0.00000004   -0.00007026    0.00010594
     atom    9 type  1   force =     0.00000012   -0.00004470   -0.00008576
     atom   10 type  1   force =     0.00000003    0.00002804   -0.00009159
     atom   11 type  1   force =    -0.00000000   -0.00001592   -0.00003770
     atom   12 type  1   force =    -0.00000000    0.00002221   -0.00006301
     atom   13 type  1   force =    -0.00000000   -0.00002559    0.00002365
     atom   14 type  1   force =     0.00000000    0.00003843    0.00006391
     atom   15 type  1   force =    -0.00000000    0.00007402   -0.00010872
     atom   16 type  1   force =    -0.00000055   -0.00002555   -0.00001077
     atom   17 type  1   force =     0.00000003    0.00001852    0.00000494
     atom   18 type  1   force =     0.00000004   -0.00007026    0.00010594
     atom   19 type  1   force =    -0.00000012   -0.00004470   -0.00008576
     atom   20 type  1   force =    -0.00000003    0.00002804   -0.00009159

     Total force =     0.001467     Total SCF correction =     0.000363
     SCF correction compared to forces is large: reduce conv_thr to get better values
     Energy error            =      5.3E-06 Ry
     Gradient error          =      3.8E-04 Ry/Bohr

     bfgs converged in   2 scf cycles and   1 bfgs steps
     (criteria: energy <  1.0E-05 Ry, force <  3.9E-04 Ry/Bohr)

     End of BFGS Geometry Optimization

     Final energy             =    -300.8524259232 Ry

     File ./Li/Lithium.bfgs deleted, as requested
Begin final coordinates

ATOMIC_POSITIONS (angstrom)
Li              -0.0000000600        3.0636769008       25.8067360689
Li              -0.0000000600        6.1911637958       23.8106299484
Li              -0.0000000500        1.5219449862       22.4927918218
Li              -0.0000000700        4.4127972401       21.0109916978
Li              -0.0000000700        0.2384962679       27.0592684522
Li               1.7175907854        3.7953141409       23.4060056211
Li               1.7175695759        6.9213324545       21.4103027292
Li               1.7175727960        2.0643775574       20.1581556520
Li               1.7175832364        5.5719291216       26.2053919470
Li               1.7175714440        0.7845533746       24.7204828965
Li               3.4351561700        3.0636735066       25.8067382650
Li               3.4351561700        6.1911593675       23.8106174509
Li               3.4351561500        1.5219618277       22.4927684866
Li               3.4351561600        4.4127939965       21.0109763125
Li               3.4351561800        0.2384985259       27.0593056668
Li               5.1527215446        3.7953141309       23.4060056111
Li               5.1527427641        6.9213324545       21.4103027392
Li               5.1527395340        2.0643775474       20.1581556719
Li               5.1527291136        5.5719291216       26.2053919370
Li               5.1527408960        0.7845533746       24.7204828765
End final coordinates



     Writing all to output data dir ./Li/Lithium.save/ :
     XML data file
     init_run     :     14.10s CPU     20.94s WALL (       1 calls)
     electrons    :    557.01s CPU    713.92s WALL (       2 calls)
     update_pot   :      0.09s CPU      0.13s WALL (       1 calls)
     forces       :      9.57s CPU      9.89s WALL (       2 calls)

     Called by init_run:
     wfcinit      :      1.06s CPU      1.43s WALL (       1 calls)
     wfcinit:wfcr :      0.99s CPU      1.36s WALL (      15 calls)
     potinit      :      0.51s CPU      0.55s WALL (       1 calls)
     hinit0       :      1.95s CPU      2.18s WALL (       1 calls)

     Called by electrons:
     c_bands      :    320.58s CPU    420.08s WALL (      40 calls)
     sum_band     :     20.12s CPU     27.66s WALL (      40 calls)
     v_of_rho     :      3.18s CPU      3.87s WALL (      41 calls)
     v_h          :      0.27s CPU      0.36s WALL (      41 calls)
     v_xc         :      2.91s CPU      3.50s WALL (      41 calls)
     newd         :      1.35s CPU      1.74s WALL (      41 calls)
     PAW_pot      :      0.36s CPU      0.52s WALL (      42 calls)
     mix_rho      :      7.61s CPU     10.27s WALL (      40 calls)

     Called by c_bands:
     init_us_2    :      2.23s CPU      2.45s WALL (    1260 calls)
     cegterg      :    304.07s CPU    380.47s WALL (     762 calls)

     Called by sum_band:
     sum_band:wei :      0.04s CPU      0.05s WALL (      40 calls)
     sum_band:loo :     18.22s CPU     24.88s WALL (      40 calls)
     sum_band:buf :      0.27s CPU      0.31s WALL (     600 calls)
     sum_band:ini :      0.94s CPU      1.00s WALL (     600 calls)
     sum_band:cal :      2.64s CPU      3.22s WALL (     615 calls)
     sum_band:bec :      0.04s CPU      0.04s WALL (     615 calls)
     addusdens    :      1.06s CPU      1.15s WALL (      40 calls)
                                        0.00s GPU  (      40 calls)
     addusd:skk   :      0.18s CPU      0.19s WALL (      40 calls)
                                        0.00s GPU  (      40 calls)

     Called by *egterg:
     cdiaghg      :     56.65s CPU     59.22s WALL (    9791 calls)
     cegterg:over :     21.52s CPU     23.98s WALL (    9136 calls)
     cegterg:upda :     18.47s CPU     19.10s WALL (    9136 calls)
     cegterg:last :      5.30s CPU      5.37s WALL (    1099 calls)
     h_psi        :    182.08s CPU    251.54s WALL (    9913 calls)
     s_psi        :     12.38s CPU     12.85s WALL (    9913 calls)
     g_psi        :      0.32s CPU      0.33s WALL (    9136 calls)

     Called by h_psi:
     h_psi:calbec :     20.75s CPU     25.51s WALL (    9913 calls)
     vloc_psi     :    146.50s CPU    209.91s WALL (    9913 calls)
                                        0.00s GPU  (    9913 calls)
     add_vuspsi   :     13.60s CPU     14.79s WALL (    9913 calls)

     General routines
     calbec       :     23.80s CPU     29.18s WALL (   10648 calls)
     fft          :      2.84s CPU      3.88s WALL (     535 calls)
     ffts         :      5.43s CPU      7.28s WALL (    4632 calls)
     fftw         :    152.79s CPU    219.42s WALL (  304948 calls)
     interpolate  :      0.64s CPU      0.73s WALL (      41 calls)

     Parallel routines

     PAW routines
     PAW_pot      :      0.36s CPU      0.52s WALL (      42 calls)
     PAW_symme    :      0.01s CPU      0.02s WALL (      82 calls)

     Environ routines

     PWSCF        :   9m49.46s CPU  12m35.70s WALL


   This run was terminated on:   2: 9:48  24Jan2025            

=------------------------------------------------------------------------------=
   JOB DONE.
=------------------------------------------------------------------------------=
