
     Program PWSCF v.7.4 starts on  2Jan2025 at 10:45:26 

     This program is part of the open-source Quantum ESPRESSO suite
     for quantum simulation of materials; please cite
         "P. Giannozzi et al., J. Phys.:Condens. Matter 21 395502 (2009);
         "P. Giannozzi et al., J. Phys.:Condens. Matter 29 465901 (2017);
         "P. Giannozzi et al., J. Chem. Phys. 152 154105 (2020);
          URL http://www.quantum-espresso.org", 
     in publications or presentations arising from this work. More details at
     http://www.quantum-espresso.org/quote

     Parallel version (MPI & OpenMP), running on     384 processor cores
     Number of MPI processes:               384
     Threads/MPI process:                     1

     MPI processes distributed on     3 nodes
     229766 MiB available memory on the printing compute node when the environment starts

     Reading input from espresso.pwi
Warning: card &CELL ignored
Warning: card    PRESS_CONV_THR   = 0.1 ignored
Warning: card    CELL_DOFREE      = 'ALL' ignored
Warning: card / ignored
Warning: card &FCP ignored
Warning: card / ignored
Warning: card &RISM ignored
Warning: card / ignored

     Current dimensions of program PWSCF are:
     Max number of different atomic species (ntypx) = 10
     Max number of k-points (npk) =  40000
     Max angular momentum in pseudopotentials (lmaxx) =  4

     IMPORTANT: XC functional enforced from input :
     Exchange-correlation= PBE
                           (   1   4   3   4   0   0   0)
     Any further DFT definition will be discarded
     Please, verify this is what you really want


     Reading input from environ.in:
     * using ionic solvent mode
     * setting boundary derivatives method to SSCS default
     * setting electrolyte-boundary derivatives method to SSCS default

Environ Warning (1001): card EOF ignored

     
     Found identity + ( -0.5000 -0.5000 -0.0000) symmetry
     This is a supercell, fractional translations are disabled

     K-points division:     npool     =       2
     R & G space division:  proc/nbgrp/npool/nimage =     192
     Subspace diagonalization in iterative solution of the eigenvalue problem:
     a serial algorithm will be used


     Parallelization info
     --------------------
     sticks:   dense  smooth     PW     G-vecs:    dense   smooth      PW
     Min          96      38     10                56184    14194    1882
     Max          97      39     11                56261    14243    1918
     Sum       18577    7447   1945             10795351  2731157  365513

     Using Slab Decomposition



     bravais-lattice index     =            4
     lattice parameter (alat)  =      18.3607  a.u.
     unit-cell volume          =   28251.3786 (a.u.)^3
     number of atoms/cell      =           48
     number of atomic types    =            1
     number of electrons       =       144.00
     number of Kohn-Sham states=          108
     kinetic-energy cutoff     =      80.0000  Ry
     charge density cutoff     =     800.0000  Ry
     scf convergence threshold =      1.0E-06
     mixing beta               =       0.2000
     number of iterations used =            8  local-TF  mixing
     energy convergence thresh.=      1.0E-05
     force convergence thresh. =      3.9E-04
     Exchange-correlation= PBE
                           (   1   4   3   4   0   0   0)
     nstep                     =          999


     ================================================================================

                                  Environ Setup Summary

     ================================================================================

     Please cite

          O. Andreussi, I. Dabo and N. Marzari, J. Chem. Phys. 136, 064102 (2012)
          F. Nattino, M. Truscott, N. Marzari, and O. Andreussi, J. Chem. Phys. 150, 041722 (2019)

     in publications or presentations arising from this work.

     ================================================================================

     Parameters
     ==========

     compensation onset threshold      =               0.1000E+00
     static permittivity               =                    89.90
     surface tension in input (dyn/cm) =                    37.30
     surface tension in internal units =               0.4792E-04

     Solvent Boundary
     ================

     solvent mode                      =                    ionic
     derivatives method                =                   lowmem
     electrolyte derivatives method    =                   lowmem
     numerical core for derivatives    =                      fft
     switching function adopted        =                     SCCS
     density limit for vacuum region   =               0.5000E-02
     density limit for bulk solvent    =               0.1000E-03
     soft-sphere radius mode           =                    bondi
     soft-sphere softness              =                     0.50
     alpha                             =                     1.32

     Electrostatic Setup
     ===================

     electrostatic problem to solve    =                    modpb
     numerical solver adopted          =                   newton
     type of auxiliary density adopted =                     none
     numerical core for poisson        =                      fft
     adopting a nested solver scheme
     inner solver                      =                       cg
     inner core                        =                      fft
     type of pbc corrections           =                parabolic
     numerical core for corrections    =                      1da

     ================================================================================


     >>>>> Grand-Canonical SCF is activated <<<<<
     Initial Total Charge  =     0.000000 e
     Target Fermi Energy   =    -2.904000 eV
     Thr. of Fermi Energy  =     0.001000 eV
     Wave-shift of Kerker  =     0.400000 bohr^-1
     Wave-shift of Hartree =     1.500000 bohr^-1
     Mixing Rate of Fermi  =     0.050000

     celldm(1)=  18.360747  celldm(2)=   0.000000  celldm(3)=   5.270332
     celldm(4)=   0.000000  celldm(5)=   0.000000  celldm(6)=   0.000000

     crystal axes: (cart. coord. in units of alat)
               a(1) = (   1.000000   0.000000   0.000000 )  
               a(2) = (  -0.500000   0.866025   0.000000 )  
               a(3) = (   0.000000   0.000000   5.270332 )  

     reciprocal axes: (cart. coord. in units 2 pi/alat)
               b(1) = (  1.000000  0.577350 -0.000000 )  
               b(2) = (  0.000000  1.154701  0.000000 )  
               b(3) = (  0.000000 -0.000000  0.189741 )  


     PseudoPot. # 1 for Li read from file:
     /work/e89/e89/ba3g18/Repos/Pseudopotentials/Pslibrary/Li.pbe-sl-kjpaw_psl.1.0.0.UPF
     MD5 check sum: 3f4d2cafebb47c6c3aa8ed472e6f074d
     Pseudo is Projector augmented-wave, Zval =  3.0
     Generated using 'atomic' code by A. Dal Corso  v.7.4
     Shape of augmentation charge: PSQ
     Using radial grid of 1017 points,  4 beta functions with: 
                l(1) =   0
                l(2) =   0
                l(3) =   1
                l(4) =   1
     Q(r) pseudized with 0 coefficients 


     atomic species   valence    mass     pseudopotential
     Li                3.00     6.94000     Li( 1.00)

      2 Sym. Ops. (no inversion) found


                                    s                        frac. trans.

      isym =  1     identity                                     

 cryst.   s( 1) = (     1          0          0      )
                  (     0          1          0      )
                  (     0          0          1      )

 cart.    s( 1) = (  1.0000000  0.0000000  0.0000000 )
                  (  0.0000000  1.0000000  0.0000000 )
                  (  0.0000000  0.0000000  1.0000000 )


      isym =  2     inv. 180 deg rotation - cart. axis [1,0,0]   

 cryst.   s( 2) = (    -1          0          0      )
                  (     1          1          0      )
                  (     0          0          1      )

 cart.    s( 2) = ( -1.0000000  0.0000000  0.0000000 )
                  (  0.0000000  1.0000000  0.0000000 )
                  (  0.0000000  0.0000000  1.0000000 )


     point group C_s (m)    
     there are  2 classes
     the character table:

       E     s    
A'     1.00  1.00
A''    1.00 -1.00

     the symmetry operations in each class and the name of the first element:

     E        1
          identity                                               
     s        2
          inv. 180 deg rotation - cart. axis [1,0,0]             

   Cartesian axes

     site n.     atom                  positions (alat units)
         1        Li     tau(   1) = (  -0.0000000   0.0000004   2.5877252  )
         2        Li     tau(   2) = (   0.2500001   0.1443432   2.1961009  )
         3        Li     tau(   3) = (   0.5000000   0.2886790   2.3687810  )
         4        Li     tau(   4) = (   0.0000000   0.0000046   2.2774685  )
         5        Li     tau(   5) = (   0.2500001   0.1443396   2.4871698  )
         6        Li     tau(   6) = (   0.5000000   0.2886809   2.0540534  )
         7        Li     tau(   7) = (   0.0000000  -0.0000067   3.2162780  )
         8        Li     tau(   8) = (   0.2499999   0.1443350   2.7831634  )
         9        Li     tau(   9) = (   0.5000000   0.2886703   2.9928625  )
        10        Li     tau(  10) = (  -0.0000000  -0.0000042   2.9015507  )
        11        Li     tau(  11) = (   0.2500004   0.1443330   3.0742329  )
        12        Li     tau(  12) = (   0.5000000   0.2886741   2.6826060  )
        13        Li     tau(  13) = (   0.2499999   0.4330134   2.5877251  )
        14        Li     tau(  14) = (   0.5000000   0.5773550   2.1961009  )
        15        Li     tau(  15) = (   0.7500000   0.7216918   2.3687813  )
        16        Li     tau(  16) = (   0.2499997   0.4330179   2.2774688  )
        17        Li     tau(  17) = (   0.5000000   0.5773522   2.4871689  )
        18        Li     tau(  18) = (   0.7499981   0.7216945   2.0540539  )
        19        Li     tau(  19) = (   0.2499993   0.4330093   3.2162780  )
        20        Li     tau(  20) = (   0.5000000   0.5773482   2.7831629  )
        21        Li     tau(  21) = (   0.7499997   0.7216835   2.9928634  )
        22        Li     tau(  22) = (   0.2499997   0.4330093   2.9015504  )
        23        Li     tau(  23) = (   0.5000000   0.5773448   3.0742310  )
        24        Li     tau(  24) = (   0.7499999   0.7216871   2.6826066  )
        25        Li     tau(  25) = (   0.5000000  -0.0000001   2.5877245  )
        26        Li     tau(  26) = (   0.7499999   0.1443432   2.1961009  )
        27        Li     tau(  27) = (   1.0000000   0.2886787   2.3687815  )
        28        Li     tau(  28) = (   0.5000000   0.0000045   2.2774677  )
        29        Li     tau(  29) = (   0.7499999   0.1443396   2.4871698  )
        30        Li     tau(  30) = (   1.0000000   0.2886788   2.0540541  )
        31        Li     tau(  31) = (   0.5000000  -0.0000078   3.2162775  )
        32        Li     tau(  32) = (   0.7500001   0.1443350   2.7831634  )
        33        Li     tau(  33) = (   1.0000000   0.2886698   2.9928636  )
        34        Li     tau(  34) = (   0.5000000  -0.0000046   2.9015502  )
        35        Li     tau(  35) = (   0.7499996   0.1443330   3.0742329  )
        36        Li     tau(  36) = (   1.0000000   0.2886742   2.6826071  )
        37        Li     tau(  37) = (   0.7500001   0.4330134   2.5877251  )
        38        Li     tau(  38) = (   1.0000000   0.5773556   2.1960979  )
        39        Li     tau(  39) = (   1.2500000   0.7216918   2.3687813  )
        40        Li     tau(  40) = (   0.7500003   0.4330179   2.2774688  )
        41        Li     tau(  41) = (   1.0000000   0.5773520   2.4871672  )
        42        Li     tau(  42) = (   1.2500019   0.7216945   2.0540539  )
        43        Li     tau(  43) = (   0.7500007   0.4330093   3.2162780  )
        44        Li     tau(  44) = (   1.0000000   0.5773482   2.7831610  )
        45        Li     tau(  45) = (   1.2500003   0.7216835   2.9928634  )
        46        Li     tau(  46) = (   0.7500003   0.4330093   2.9015504  )
        47        Li     tau(  47) = (   1.0000000   0.5773448   3.0742296  )
        48        Li     tau(  48) = (   1.2500001   0.7216871   2.6826066  )

   Crystallographic axes

     site n.     atom                  positions (cryst. coord.)
         1        Li     tau(   1) = (  0.0000002  0.0000004  0.4909985  )
         2        Li     tau(   2) = (  0.3333367  0.1666732  0.4166912  )
         3        Li     tau(   3) = (  0.6666689  0.3333378  0.4494557  )
         4        Li     tau(   4) = (  0.0000026  0.0000053  0.4321300  )
         5        Li     tau(   5) = (  0.3333347  0.1666691  0.4719190  )
         6        Li     tau(   6) = (  0.6666700  0.3333400  0.3897389  )
         7        Li     tau(   7) = ( -0.0000039 -0.0000077  0.6102610  )
         8        Li     tau(   8) = (  0.3333318  0.1666637  0.5280812  )
         9        Li     tau(   9) = (  0.6666639  0.3333277  0.5678698  )
        10        Li     tau(  10) = ( -0.0000024 -0.0000049  0.5505442  )
        11        Li     tau(  11) = (  0.3333310  0.1666614  0.5833092  )
        12        Li     tau(  12) = (  0.6666661  0.3333321  0.5090013  )
        13        Li     tau(  13) = (  0.5000003  0.5000008  0.4909985  )
        14        Li     tau(  14) = (  0.8333360  0.6666721  0.4166912  )
        15        Li     tau(  15) = (  1.1666689  0.8333379  0.4494558  )
        16        Li     tau(  16) = (  0.5000027  0.5000060  0.4321301  )
        17        Li     tau(  17) = (  0.8333345  0.6666689  0.4719188  )
        18        Li     tau(  18) = (  1.1666686  0.8333410  0.3897390  )
        19        Li     tau(  19) = (  0.4999974  0.4999961  0.6102610  )
        20        Li     tau(  20) = (  0.8333321  0.6666642  0.5280811  )
        21        Li     tau(  21) = (  1.1666638  0.8333283  0.5678700  )
        22        Li     tau(  22) = (  0.4999977  0.4999961  0.5505441  )
        23        Li     tau(  23) = (  0.8333302  0.6666604  0.5833088  )
        24        Li     tau(  24) = (  1.1666661  0.8333325  0.5090015  )
        25        Li     tau(  25) = (  0.4999999 -0.0000002  0.4909984  )
        26        Li     tau(  26) = (  0.8333364  0.1666732  0.4166912  )
        27        Li     tau(  27) = (  1.1666687  0.3333375  0.4494558  )
        28        Li     tau(  28) = (  0.5000026  0.0000052  0.4321298  )
        29        Li     tau(  29) = (  0.8333344  0.1666691  0.4719190  )
        30        Li     tau(  30) = (  1.1666688  0.3333376  0.3897390  )
        31        Li     tau(  31) = (  0.4999955 -0.0000090  0.6102609  )
        32        Li     tau(  32) = (  0.8333319  0.1666637  0.5280812  )
        33        Li     tau(  33) = (  1.1666636  0.3333272  0.5678700  )
        34        Li     tau(  34) = (  0.4999973 -0.0000053  0.5505441  )
        35        Li     tau(  35) = (  0.8333303  0.1666614  0.5833092  )
        36        Li     tau(  36) = (  1.1666661  0.3333322  0.5090015  )
        37        Li     tau(  37) = (  1.0000005  0.5000008  0.4909985  )
        38        Li     tau(  38) = (  1.3333364  0.6666728  0.4166906  )
        39        Li     tau(  39) = (  1.6666689  0.8333379  0.4494558  )
        40        Li     tau(  40) = (  1.0000033  0.5000060  0.4321301  )
        41        Li     tau(  41) = (  1.3333343  0.6666687  0.4719185  )
        42        Li     tau(  42) = (  1.6666724  0.8333410  0.3897390  )
        43        Li     tau(  43) = (  0.9999987  0.4999961  0.6102610  )
        44        Li     tau(  44) = (  1.3333321  0.6666643  0.5280808  )
        45        Li     tau(  45) = (  1.6666644  0.8333283  0.5678700  )
        46        Li     tau(  46) = (  0.9999983  0.4999961  0.5505441  )
        47        Li     tau(  47) = (  1.3333302  0.6666603  0.5833085  )
        48        Li     tau(  48) = (  1.6666664  0.8333325  0.5090015  )

     number of k points=    16  Marzari-Vanderbilt smearing, width (Ry)=  0.0100
                       cart. coord. in units 2pi/alat
        k(    1) = (   0.0000000   0.0000000   0.0000000), wk =   0.0408163
        k(    2) = (   0.0000000   0.1649572   0.0000000), wk =   0.0816327
        k(    3) = (   0.0000000   0.3299144   0.0000000), wk =   0.0816327
        k(    4) = (   0.0000000   0.4948717   0.0000000), wk =   0.0816327
        k(    5) = (   0.1428571   0.2474358   0.0000000), wk =   0.1632653
        k(    6) = (   0.1428571   0.4123930   0.0000000), wk =   0.1632653
        k(    7) = (   0.1428571   0.5773503   0.0000000), wk =   0.0816327
        k(    8) = (   0.2857143   0.4948717   0.0000000), wk =   0.1632653
        k(    9) = (  -0.1428571   0.0824786   0.0000000), wk =   0.1632653
        k(   10) = (  -0.2857143   0.1649572   0.0000000), wk =   0.1632653
        k(   11) = (  -0.4285714   0.2474358   0.0000000), wk =   0.1632653
        k(   12) = (   0.2857143  -0.0000000   0.0000000), wk =   0.0816327
        k(   13) = (  -0.2857143   0.3299144   0.0000000), wk =   0.1632653
        k(   14) = (   0.4285714   0.0824786   0.0000000), wk =   0.1632653
        k(   15) = (  -0.4285714   0.4123930   0.0000000), wk =   0.1632653
        k(   16) = (   0.5714286  -0.0000000   0.0000000), wk =   0.0816327

                       cryst. coord.
        k(    1) = (   0.0000000   0.0000000   0.0000000), wk =   0.0408163
        k(    2) = (   0.0000000   0.1428571   0.0000000), wk =   0.0816327
        k(    3) = (   0.0000000   0.2857143   0.0000000), wk =   0.0816327
        k(    4) = (   0.0000000   0.4285714   0.0000000), wk =   0.0816327
        k(    5) = (   0.1428571   0.1428571   0.0000000), wk =   0.1632653
        k(    6) = (   0.1428571   0.2857143   0.0000000), wk =   0.1632653
        k(    7) = (   0.1428571   0.4285714   0.0000000), wk =   0.0816327
        k(    8) = (   0.2857143   0.2857143   0.0000000), wk =   0.1632653
        k(    9) = (  -0.1428571   0.1428571   0.0000000), wk =   0.1632653
        k(   10) = (  -0.2857143   0.2857143   0.0000000), wk =   0.1632653
        k(   11) = (  -0.4285714   0.4285714   0.0000000), wk =   0.1632653
        k(   12) = (   0.2857143  -0.1428571   0.0000000), wk =   0.0816327
        k(   13) = (  -0.2857143   0.4285714   0.0000000), wk =   0.1632653
        k(   14) = (   0.4285714  -0.1428571   0.0000000), wk =   0.1632653
        k(   15) = (  -0.4285714   0.5714286   0.0000000), wk =   0.1632653
        k(   16) = (   0.5714286  -0.2857143   0.0000000), wk =   0.0816327

     Dense  grid: 10795351 G-vectors     FFT dimensions: ( 180, 180, 900)

     Smooth grid:  2731157 G-vectors     FFT dimensions: ( 108, 108, 576)

     Dynamical RAM for                 wfc:       2.93 MB

     Dynamical RAM for     wfc (w. buffer):      26.36 MB

     Dynamical RAM for           str. fact:       0.86 MB

     Dynamical RAM for           local pot:       0.00 MB

     Dynamical RAM for          nlocal pot:      10.41 MB

     Dynamical RAM for                qrad:       0.65 MB

     Dynamical RAM for          rho,v,vnew:       6.28 MB

     Dynamical RAM for               rhoin:       2.09 MB

     Dynamical RAM for            rho*nmix:      13.73 MB

     Dynamical RAM for           G-vectors:       3.33 MB

     Dynamical RAM for          h,s,v(r/c):       8.54 MB

     Dynamical RAM for          <psi|beta>:       0.63 MB

     Dynamical RAM for                 psi:      11.71 MB

     Dynamical RAM for                hpsi:      11.71 MB

     Dynamical RAM for                spsi:      11.71 MB

     Dynamical RAM for      wfcinit/wfcrot:       6.12 MB

     Dynamical RAM for           addusdens:      39.47 MB

     Dynamical RAM for          addusforce:      79.84 MB

     Estimated static dynamical RAM per process >      57.87 MB

     Estimated max dynamical RAM per process >     164.72 MB

     Estimated total dynamical RAM >      54.21 GB

     Initial potential from superposition of free atoms

     starting charge     143.7788, renormalised to     144.0000

     negative rho (up, down):  4.638E-03 0.000E+00
     Starting wfcs are random
     Checking if some PAW data can be deallocated... 

     total cpu time spent up to now is       36.6 secs

     Self-consistent Calculation

     iteration #  1     ecut=    80.00 Ry     beta= 0.20
     Davidson diagonalization with overlap

---- Real-time Memory Report at c_bands before calling an iterative solver
          1124 MiB given to the printing process from OS
             0 MiB allocation reported by mallinfo(arena+hblkhd)
        211308 MiB available memory on the node where the printing process lives
------------------
     c_bands:  1 eigenvalues not converged
     c_bands:  2 eigenvalues not converged
     ethr =  1.00E-12,  avg # of iterations =134.8

     negative rho (up, down):  3.483E-03 0.000E+00

     total cpu time spent up to now is      267.9 secs

     total energy              =    -721.73533216 Ry
     estimated scf accuracy    <       0.17380209 Ry

     total charge of GC-SCF    =       0.04909157 e
     the Fermi energy          =      -4.51014877 eV
                        (error :       1.60614877 eV)
     electrostatic embedding   =       0.00000000 Ry
     cavitation energy         =       0.03957450 Ry
     electrolyte free energy   =       0.01215974 Ry
     correction to one-el term =      -0.00000000 Ry

     iteration #  2     ecut=    80.00 Ry     beta= 0.20
     Davidson diagonalization with overlap

---- Real-time Memory Report at c_bands before calling an iterative solver
          1124 MiB given to the printing process from OS
             0 MiB allocation reported by mallinfo(arena+hblkhd)
        203904 MiB available memory on the node where the printing process lives
------------------
     ethr =  1.00E-05,  avg # of iterations = 12.0

     negative rho (up, down):  2.647E-03 0.000E+00

     add environment contribution to local potential

     total cpu time spent up to now is      304.7 secs

     total energy              =    -721.71807037 Ry
     estimated scf accuracy    <       0.06329645 Ry

     total charge of GC-SCF    =       0.10163116 e
     the Fermi energy          =      -3.54750811 eV
                        (error :       0.64350811 eV)
     electrostatic embedding   =       0.00039305 Ry
     cavitation energy         =       0.03957450 Ry
     electrolyte free energy   =       0.01215974 Ry
     correction to one-el term =      -0.00000000 Ry

     iteration #  3     ecut=    80.00 Ry     beta= 0.20
     Davidson diagonalization with overlap

---- Real-time Memory Report at c_bands before calling an iterative solver
          1124 MiB given to the printing process from OS
             0 MiB allocation reported by mallinfo(arena+hblkhd)
        203298 MiB available memory on the node where the printing process lives
------------------
     ethr =  1.00E-05,  avg # of iterations = 31.7

     negative rho (up, down):  2.159E-03 0.000E+00

     add environment contribution to local potential

     total cpu time spent up to now is      358.2 secs

     total energy              =    -721.65862902 Ry
     estimated scf accuracy    <       0.03723060 Ry

     total charge of GC-SCF    =       0.07553022 e
     the Fermi energy          =      -2.97856070 eV
                        (error :       0.07456070 eV)
     electrostatic embedding   =      -0.03633915 Ry
     cavitation energy         =       0.03957450 Ry
     electrolyte free energy   =      -0.00445602 Ry
     correction to one-el term =      -2.84543184 Ry

     iteration #  4     ecut=    80.00 Ry     beta= 0.20
     Davidson diagonalization with overlap

---- Real-time Memory Report at c_bands before calling an iterative solver
          1124 MiB given to the printing process from OS
             0 MiB allocation reported by mallinfo(arena+hblkhd)
        203164 MiB available memory on the node where the printing process lives
------------------
     ethr =  1.00E-05,  avg # of iterations = 17.1

     negative rho (up, down):  1.706E-03 0.000E+00

     add environment contribution to local potential

     total cpu time spent up to now is      401.9 secs

     total energy              =    -721.62378203 Ry
     estimated scf accuracy    <       0.03070003 Ry

     total charge of GC-SCF    =       0.12599953 e
     the Fermi energy          =      -3.42860779 eV
                        (error :       0.52460779 eV)
     electrostatic embedding   =      -0.03562192 Ry
     cavitation energy         =       0.03957450 Ry
     electrolyte free energy   =      -0.00620295 Ry
     correction to one-el term =       0.19240025 Ry

     iteration #  5     ecut=    80.00 Ry     beta= 0.20
     Davidson diagonalization with overlap

---- Real-time Memory Report at c_bands before calling an iterative solver
          1124 MiB given to the printing process from OS
             0 MiB allocation reported by mallinfo(arena+hblkhd)
        202994 MiB available memory on the node where the printing process lives
------------------
     ethr =  1.00E-05,  avg # of iterations = 21.8

     negative rho (up, down):  1.432E-03 0.000E+00

     add environment contribution to local potential

     total cpu time spent up to now is      451.3 secs

     total energy              =    -721.68251014 Ry
     estimated scf accuracy    <       0.00458715 Ry

     total charge of GC-SCF    =       0.21051116 e
     the Fermi energy          =      -2.87058959 eV
                        (error :       0.03341041 eV)
     electrostatic embedding   =      -0.03527968 Ry
     cavitation energy         =       0.03957450 Ry
     electrolyte free energy   =      -0.00300849 Ry
     correction to one-el term =       0.19689813 Ry

     iteration #  6     ecut=    80.00 Ry     beta= 0.20
     Davidson diagonalization with overlap

---- Real-time Memory Report at c_bands before calling an iterative solver
          1124 MiB given to the printing process from OS
             0 MiB allocation reported by mallinfo(arena+hblkhd)
        202874 MiB available memory on the node where the printing process lives
------------------
     ethr =  3.19E-06,  avg # of iterations = 18.4

     negative rho (up, down):  1.254E-03 0.000E+00

     add environment contribution to local potential

     total cpu time spent up to now is      499.4 secs

     total energy              =    -721.71466904 Ry
     estimated scf accuracy    <       0.00764254 Ry

     total charge of GC-SCF    =       0.26151381 e
     the Fermi energy          =      -2.61373143 eV
                        (error :       0.29026857 eV)
     electrostatic embedding   =      -0.04082820 Ry
     cavitation energy         =       0.03957450 Ry
     electrolyte free energy   =      -0.00152491 Ry
     correction to one-el term =       0.46725870 Ry

     iteration #  7     ecut=    80.00 Ry     beta= 0.20
     Davidson diagonalization with overlap

---- Real-time Memory Report at c_bands before calling an iterative solver
          1124 MiB given to the printing process from OS
             0 MiB allocation reported by mallinfo(arena+hblkhd)
        202777 MiB available memory on the node where the printing process lives
------------------
     ethr =  3.19E-06,  avg # of iterations =  7.4

     negative rho (up, down):  1.216E-03 0.000E+00

     add environment contribution to local potential

     total cpu time spent up to now is      530.4 secs

     total energy              =    -721.69919519 Ry
     estimated scf accuracy    <       0.00177054 Ry

     total charge of GC-SCF    =       0.36739280 e
     the Fermi energy          =      -2.65995749 eV
                        (error :       0.24404251 eV)
     electrostatic embedding   =      -0.04730797 Ry
     cavitation energy         =       0.03957450 Ry
     electrolyte free energy   =      -0.00154859 Ry
     correction to one-el term =       0.61468304 Ry

     iteration #  8     ecut=    80.00 Ry     beta= 0.20
     Davidson diagonalization with overlap

---- Real-time Memory Report at c_bands before calling an iterative solver
          1124 MiB given to the printing process from OS
             0 MiB allocation reported by mallinfo(arena+hblkhd)
        202761 MiB available memory on the node where the printing process lives
------------------
     ethr =  1.23E-06,  avg # of iterations = 23.9

     negative rho (up, down):  1.099E-03 0.000E+00

     add environment contribution to local potential

     total cpu time spent up to now is      579.4 secs

     total energy              =    -721.69912223 Ry
     estimated scf accuracy    <       0.00548757 Ry

     total charge of GC-SCF    =       0.39772088 e
     the Fermi energy          =      -2.89708035 eV
                        (error :       0.00691965 eV)
     electrostatic embedding   =      -0.05176057 Ry
     cavitation energy         =       0.03957450 Ry
     electrolyte free energy   =      -0.00290950 Ry
     correction to one-el term =      -0.67866968 Ry

     iteration #  9     ecut=    80.00 Ry     beta= 0.20
     Davidson diagonalization with overlap

---- Real-time Memory Report at c_bands before calling an iterative solver
          1124 MiB given to the printing process from OS
             0 MiB allocation reported by mallinfo(arena+hblkhd)
        202676 MiB available memory on the node where the printing process lives
------------------
     ethr =  1.23E-06,  avg # of iterations = 22.4

     negative rho (up, down):  1.870E-03 0.000E+00

     add environment contribution to local potential

     total cpu time spent up to now is      631.2 secs

     total energy              =    -721.70939807 Ry
     estimated scf accuracy    <       0.00024578 Ry

     total charge of GC-SCF    =       0.49842408 e
     the Fermi energy          =      -2.73503557 eV
                        (error :       0.16896443 eV)
     electrostatic embedding   =      -0.05164389 Ry
     cavitation energy         =       0.03957450 Ry
     electrolyte free energy   =      -0.00197435 Ry
     correction to one-el term =      -2.23864870 Ry

     iteration # 10     ecut=    80.00 Ry     beta= 0.20
     Davidson diagonalization with overlap

---- Real-time Memory Report at c_bands before calling an iterative solver
          1124 MiB given to the printing process from OS
             0 MiB allocation reported by mallinfo(arena+hblkhd)
        202583 MiB available memory on the node where the printing process lives
------------------
     ethr =  1.71E-07,  avg # of iterations = 26.6

     negative rho (up, down):  1.045E-03 0.000E+00

     add environment contribution to local potential

     total cpu time spent up to now is      683.7 secs

     total energy              =    -721.71260020 Ry
     estimated scf accuracy    <       0.00281722 Ry

     total charge of GC-SCF    =       0.57258234 e
     the Fermi energy          =      -2.86966363 eV
                        (error :       0.03433637 eV)
     electrostatic embedding   =      -0.05527650 Ry
     cavitation energy         =       0.03957450 Ry
     electrolyte free energy   =      -0.00285108 Ry
     correction to one-el term =      -4.78504393 Ry

     iteration # 11     ecut=    80.00 Ry     beta= 0.20
     Davidson diagonalization with overlap

---- Real-time Memory Report at c_bands before calling an iterative solver
          1124 MiB given to the printing process from OS
             0 MiB allocation reported by mallinfo(arena+hblkhd)
        202416 MiB available memory on the node where the printing process lives
------------------
     ethr =  1.71E-07,  avg # of iterations = 17.1

     negative rho (up, down):  8.738E-04 0.000E+00

     add environment contribution to local potential

     total cpu time spent up to now is      725.7 secs

     total energy              =    -721.71508265 Ry
     estimated scf accuracy    <       0.00063664 Ry

     total charge of GC-SCF    =       0.60892537 e
     the Fermi energy          =      -2.84110824 eV
                        (error :       0.06289176 eV)
     electrostatic embedding   =      -0.05868860 Ry
     cavitation energy         =       0.03957450 Ry
     electrolyte free energy   =      -0.00278946 Ry
     correction to one-el term =      -8.72697954 Ry

     iteration # 12     ecut=    80.00 Ry     beta= 0.20
     Davidson diagonalization with overlap

---- Real-time Memory Report at c_bands before calling an iterative solver
          1124 MiB given to the printing process from OS
             0 MiB allocation reported by mallinfo(arena+hblkhd)
        202410 MiB available memory on the node where the printing process lives
------------------
     ethr =  1.71E-07,  avg # of iterations = 11.2

     negative rho (up, down):  7.136E-04 0.000E+00

     add environment contribution to local potential

     total cpu time spent up to now is      759.8 secs

     total energy              =    -721.71350843 Ry
     estimated scf accuracy    <       0.00038856 Ry

     total charge of GC-SCF    =       0.75346844 e
     the Fermi energy          =      -2.84460922 eV
                        (error :       0.05939078 eV)
     electrostatic embedding   =      -0.06088901 Ry
     cavitation energy         =       0.03957450 Ry
     electrolyte free energy   =      -0.00286805 Ry
     correction to one-el term =     -10.46675372 Ry

     iteration # 13     ecut=    80.00 Ry     beta= 0.20
     Davidson diagonalization with overlap

---- Real-time Memory Report at c_bands before calling an iterative solver
          1124 MiB given to the printing process from OS
             0 MiB allocation reported by mallinfo(arena+hblkhd)
        202419 MiB available memory on the node where the printing process lives
------------------
     ethr =  1.71E-07,  avg # of iterations = 14.0

     negative rho (up, down):  6.748E-04 0.000E+00

     add environment contribution to local potential

     total cpu time spent up to now is      800.7 secs

     total energy              =    -721.71680419 Ry
     estimated scf accuracy    <       0.00010308 Ry

     total charge of GC-SCF    =       0.78277484 e
     the Fermi energy          =      -2.82024525 eV
                        (error :       0.08375475 eV)
     electrostatic embedding   =      -0.07444313 Ry
     cavitation energy         =       0.03957450 Ry
     electrolyte free energy   =      -0.00295117 Ry
     correction to one-el term =     -16.29539896 Ry

     iteration # 14     ecut=    80.00 Ry     beta= 0.20
     Davidson diagonalization with overlap

---- Real-time Memory Report at c_bands before calling an iterative solver
          1124 MiB given to the printing process from OS
             0 MiB allocation reported by mallinfo(arena+hblkhd)
        202415 MiB available memory on the node where the printing process lives
------------------
     ethr =  7.20E-08,  avg # of iterations = 10.5

     negative rho (up, down):  6.580E-04 0.000E+00

     add environment contribution to local potential

     total cpu time spent up to now is      832.5 secs

     total energy              =    -721.71614037 Ry
     estimated scf accuracy    <       0.00013470 Ry

     total charge of GC-SCF    =       0.83930995 e
     the Fermi energy          =      -2.81210273 eV
                        (error :       0.09189727 eV)
     electrostatic embedding   =      -0.07854594 Ry
     cavitation energy         =       0.03957450 Ry
     electrolyte free energy   =      -0.00293594 Ry
     correction to one-el term =     -17.11104040 Ry

     iteration # 15     ecut=    80.00 Ry     beta= 0.20
     Davidson diagonalization with overlap

---- Real-time Memory Report at c_bands before calling an iterative solver
          1124 MiB given to the printing process from OS
             0 MiB allocation reported by mallinfo(arena+hblkhd)
        202400 MiB available memory on the node where the printing process lives
------------------
     ethr =  7.20E-08,  avg # of iterations = 13.8

     negative rho (up, down):  6.401E-04 0.000E+00

     add environment contribution to local potential

     total cpu time spent up to now is      870.8 secs

     total energy              =    -721.71714585 Ry
     estimated scf accuracy    <       0.00002192 Ry

     total charge of GC-SCF    =       0.85086537 e
     the Fermi energy          =      -2.83244717 eV
                        (error :       0.07155283 eV)
     electrostatic embedding   =      -0.08664118 Ry
     cavitation energy         =       0.03957450 Ry
     electrolyte free energy   =      -0.00315636 Ry
     correction to one-el term =     -18.88141063 Ry

     iteration # 16     ecut=    80.00 Ry     beta= 0.20
     Davidson diagonalization with overlap

---- Real-time Memory Report at c_bands before calling an iterative solver
          1124 MiB given to the printing process from OS
             0 MiB allocation reported by mallinfo(arena+hblkhd)
        202392 MiB available memory on the node where the printing process lives
------------------
     ethr =  1.53E-08,  avg # of iterations = 19.1

     negative rho (up, down):  6.178E-04 0.000E+00

     add environment contribution to local potential

     total cpu time spent up to now is      919.1 secs

     total energy              =    -721.71647361 Ry
     estimated scf accuracy    <       0.00000761 Ry

     total charge of GC-SCF    =       0.96857740 e
     the Fermi energy          =      -2.83986336 eV
                        (error :       0.06413664 eV)
     electrostatic embedding   =      -0.08839952 Ry
     cavitation energy         =       0.03957450 Ry
     electrolyte free energy   =      -0.00321869 Ry
     correction to one-el term =     -19.15968511 Ry

     iteration # 17     ecut=    80.00 Ry     beta= 0.20
     Davidson diagonalization with overlap

---- Real-time Memory Report at c_bands before calling an iterative solver
          1124 MiB given to the printing process from OS
             0 MiB allocation reported by mallinfo(arena+hblkhd)
        202433 MiB available memory on the node where the printing process lives
------------------
     ethr =  5.32E-09,  avg # of iterations = 26.0

     negative rho (up, down):  6.210E-04 0.000E+00

     add environment contribution to local potential

     total cpu time spent up to now is      971.7 secs

     total energy              =    -721.71930080 Ry
     estimated scf accuracy    <       0.00001626 Ry

     total charge of GC-SCF    =       1.16420560 e
     the Fermi energy          =      -2.86218574 eV
                        (error :       0.04181426 eV)
     electrostatic embedding   =      -0.10747630 Ry
     cavitation energy         =       0.03957450 Ry
     electrolyte free energy   =      -0.00359458 Ry
     correction to one-el term =     -23.08052364 Ry

     iteration # 18     ecut=    80.00 Ry     beta= 0.20
     Davidson diagonalization with overlap

---- Real-time Memory Report at c_bands before calling an iterative solver
          1124 MiB given to the printing process from OS
             0 MiB allocation reported by mallinfo(arena+hblkhd)
        202401 MiB available memory on the node where the printing process lives
------------------
     ethr =  5.32E-09,  avg # of iterations = 21.2

     negative rho (up, down):  6.075E-04 0.000E+00

     add environment contribution to local potential

     total cpu time spent up to now is     1024.5 secs

     total energy              =    -721.71806306 Ry
     estimated scf accuracy    <       0.00000361 Ry

     total charge of GC-SCF    =       1.21974232 e
     the Fermi energy          =      -2.88189354 eV
                        (error :       0.02210646 eV)
     electrostatic embedding   =      -0.14711225 Ry
     cavitation energy         =       0.03957450 Ry
     electrolyte free energy   =      -0.00417391 Ry
     correction to one-el term =     -29.58526976 Ry

     iteration # 19     ecut=    80.00 Ry     beta= 0.20
     Davidson diagonalization with overlap

---- Real-time Memory Report at c_bands before calling an iterative solver
          1124 MiB given to the printing process from OS
             0 MiB allocation reported by mallinfo(arena+hblkhd)
        202417 MiB available memory on the node where the printing process lives
------------------
     ethr =  2.53E-09,  avg # of iterations = 19.0

     negative rho (up, down):  5.910E-04 0.000E+00

     add environment contribution to local potential

     total cpu time spent up to now is     1069.4 secs

     total energy              =    -721.71814887 Ry
     estimated scf accuracy    <       0.00000196 Ry

     total charge of GC-SCF    =       1.25238391 e
     the Fermi energy          =      -2.88804772 eV
                        (error :       0.01595228 eV)
     electrostatic embedding   =      -0.16020770 Ry
     cavitation energy         =       0.03957450 Ry
     electrolyte free energy   =      -0.00436412 Ry
     correction to one-el term =     -31.48025273 Ry

     iteration # 20     ecut=    80.00 Ry     beta= 0.20
     Davidson diagonalization with overlap

---- Real-time Memory Report at c_bands before calling an iterative solver
          1124 MiB given to the printing process from OS
             0 MiB allocation reported by mallinfo(arena+hblkhd)
        202394 MiB available memory on the node where the printing process lives
------------------
     ethr =  1.37E-09,  avg # of iterations = 24.2

     negative rho (up, down):  5.814E-04 0.000E+00

     add environment contribution to local potential

     total cpu time spent up to now is     1119.0 secs

     total energy              =    -721.71819548 Ry
     estimated scf accuracy    <       0.00000129 Ry

     total charge of GC-SCF    =       1.26872267 e
     the Fermi energy          =      -2.89313818 eV
                        (error :       0.01086182 eV)
     electrostatic embedding   =      -0.16824755 Ry
     cavitation energy         =       0.03957450 Ry
     electrolyte free energy   =      -0.00448923 Ry
     correction to one-el term =     -32.60397721 Ry

     iteration # 21     ecut=    80.00 Ry     beta= 0.20
     Davidson diagonalization with overlap

---- Real-time Memory Report at c_bands before calling an iterative solver
          1124 MiB given to the printing process from OS
             0 MiB allocation reported by mallinfo(arena+hblkhd)
        202423 MiB available memory on the node where the printing process lives
------------------
     ethr =  9.05E-10,  avg # of iterations = 18.6

     negative rho (up, down):  5.786E-04 0.000E+00

     add environment contribution to local potential

     total cpu time spent up to now is     1162.0 secs

     total energy              =    -721.71823619 Ry
     estimated scf accuracy    <       0.00000088 Ry

     total charge of GC-SCF    =       1.26733129 e
     the Fermi energy          =      -2.89694382 eV
                        (error :       0.00705618 eV)
     electrostatic embedding   =      -0.17236977 Ry
     cavitation energy         =       0.03957450 Ry
     electrolyte free energy   =      -0.00456266 Ry
     correction to one-el term =     -33.17471330 Ry

     iteration # 22     ecut=    80.00 Ry     beta= 0.20
     Davidson diagonalization with overlap

---- Real-time Memory Report at c_bands before calling an iterative solver
          1124 MiB given to the printing process from OS
             0 MiB allocation reported by mallinfo(arena+hblkhd)
        202392 MiB available memory on the node where the printing process lives
------------------
     ethr =  6.17E-10,  avg # of iterations = 13.9

     negative rho (up, down):  5.760E-04 0.000E+00

     add environment contribution to local potential

     total cpu time spent up to now is     1199.0 secs

     total energy              =    -721.71823335 Ry
     estimated scf accuracy    <       0.00000063 Ry

     total charge of GC-SCF    =       1.28731475 e
     the Fermi energy          =      -2.89661686 eV
                        (error :       0.00738314 eV)
     electrostatic embedding   =      -0.17226600 Ry
     cavitation energy         =       0.03957450 Ry
     electrolyte free energy   =      -0.00455783 Ry
     correction to one-el term =     -33.13142233 Ry

     iteration # 23     ecut=    80.00 Ry     beta= 0.20
     Davidson diagonalization with overlap

---- Real-time Memory Report at c_bands before calling an iterative solver
          1124 MiB given to the printing process from OS
             0 MiB allocation reported by mallinfo(arena+hblkhd)
        202447 MiB available memory on the node where the printing process lives
------------------
     ethr =  4.43E-10,  avg # of iterations = 20.6

     negative rho (up, down):  5.751E-04 0.000E+00

     add environment contribution to local potential

     total cpu time spent up to now is     1244.3 secs

     total energy              =    -721.71826514 Ry
     estimated scf accuracy    <       0.00000034 Ry

     total charge of GC-SCF    =       1.30899781 e
     the Fermi energy          =      -2.89909533 eV
                        (error :       0.00490467 eV)
     electrostatic embedding   =      -0.17769303 Ry
     cavitation energy         =       0.03957450 Ry
     electrolyte free energy   =      -0.00463451 Ry
     correction to one-el term =     -33.83903746 Ry

     iteration # 24     ecut=    80.00 Ry     beta= 0.20
     Davidson diagonalization with overlap

---- Real-time Memory Report at c_bands before calling an iterative solver
          1124 MiB given to the printing process from OS
             0 MiB allocation reported by mallinfo(arena+hblkhd)
        202415 MiB available memory on the node where the printing process lives
------------------
     ethr =  2.37E-10,  avg # of iterations = 21.0

     negative rho (up, down):  5.718E-04 0.000E+00

     add environment contribution to local potential

     total cpu time spent up to now is     1291.3 secs

     total energy              =    -721.71824428 Ry
     estimated scf accuracy    <       0.00000017 Ry

     total charge of GC-SCF    =       1.30809218 e
     the Fermi energy          =      -2.90153965 eV
                        (error :       0.00246035 eV)
     electrostatic embedding   =      -0.18347915 Ry
     cavitation energy         =       0.03957450 Ry
     electrolyte free energy   =      -0.00471378 Ry
     correction to one-el term =     -34.57147653 Ry

     iteration # 25     ecut=    80.00 Ry     beta= 0.20
     Davidson diagonalization with overlap

---- Real-time Memory Report at c_bands before calling an iterative solver
          1124 MiB given to the printing process from OS
             0 MiB allocation reported by mallinfo(arena+hblkhd)
        202414 MiB available memory on the node where the printing process lives
------------------
     ethr =  1.17E-10,  avg # of iterations = 13.3

     negative rho (up, down):  5.715E-04 0.000E+00

     add environment contribution to local potential

     total cpu time spent up to now is     1325.4 secs

     total energy              =    -721.71824556 Ry
     estimated scf accuracy    <       0.00000012 Ry

     total charge of GC-SCF    =       1.31747006 e
     the Fermi energy          =      -2.90147158 eV
                        (error :       0.00252842 eV)
     electrostatic embedding   =      -0.18318478 Ry
     cavitation energy         =       0.03957450 Ry
     electrolyte free energy   =      -0.00470979 Ry
     correction to one-el term =     -34.53069742 Ry

     iteration # 26     ecut=    80.00 Ry     beta= 0.20
     Davidson diagonalization with overlap

---- Real-time Memory Report at c_bands before calling an iterative solver
          1124 MiB given to the printing process from OS
             0 MiB allocation reported by mallinfo(arena+hblkhd)
        202443 MiB available memory on the node where the printing process lives
------------------
     ethr =  8.30E-11,  avg # of iterations = 22.4

     negative rho (up, down):  5.686E-04 0.000E+00

     add environment contribution to local potential

     total cpu time spent up to now is     1373.2 secs

     total energy              =    -721.71824149 Ry
     estimated scf accuracy    <       0.00000005 Ry

     total charge of GC-SCF    =       1.32033377 e
     the Fermi energy          =      -2.90280411 eV
                        (error :       0.00119589 eV)
     electrostatic embedding   =      -0.18562486 Ry
     cavitation energy         =       0.03957450 Ry
     electrolyte free energy   =      -0.00474557 Ry
     correction to one-el term =     -34.83850236 Ry

     iteration # 27     ecut=    80.00 Ry     beta= 0.20
     Davidson diagonalization with overlap

---- Real-time Memory Report at c_bands before calling an iterative solver
          1124 MiB given to the printing process from OS
             0 MiB allocation reported by mallinfo(arena+hblkhd)
        202458 MiB available memory on the node where the printing process lives
------------------
     ethr =  3.25E-11,  avg # of iterations = 12.6

     negative rho (up, down):  5.552E-04 0.000E+00

     total cpu time spent up to now is     1399.4 secs

     End of self-consistent calculation

          k = 0.0000 0.0000 0.0000 (341261 PWs)   bands (ev):

   -50.7172 -50.7172 -50.7172 -50.7172 -50.7172 -50.7172 -50.7172 -50.7172
   -49.7728 -49.7727 -49.7726 -49.7725 -49.7725 -49.7725 -49.7725 -49.7725
   -49.5133 -49.5132 -49.5132 -49.5132 -49.5132 -49.5131 -49.5131 -49.5131
   -49.4261 -49.4191 -49.4191 -49.4191 -49.4152 -49.4151 -49.4151 -49.4118
   -49.4030 -49.4030 -49.4030 -49.4012 -49.3976 -49.3976 -49.3975 -49.3963
   -49.3213 -49.3212 -49.3212 -49.3212 -49.3212 -49.3211 -49.3208 -49.3207
    -6.3268  -5.8862  -5.1233  -4.7466  -4.7466  -4.7466  -4.7367  -4.7367
    -4.7367  -4.2958  -4.2958  -4.2958  -4.2947  -4.2947  -4.2947  -4.1879
    -3.5438  -3.5438  -3.5438  -3.5018  -3.5018  -3.5018  -3.0660  -2.7299
    -2.7299  -2.7299  -2.4783  -2.4783  -2.4783  -2.4236  -2.4236  -2.4236
    -1.9282  -1.9282  -1.9282  -1.9109  -1.6731  -1.6731  -1.6731  -1.0300
    -0.9237  -0.9237  -0.9236  -0.7848  -0.7848  -0.7848  -0.4587  -0.4586
    -0.3351  -0.3351  -0.2334  -0.2315  -0.2315  -0.2315  -0.1507   0.0230
     0.0440   0.0521   0.0521   0.1904

     occupation numbers 
     1.0000   1.0000   1.0000   1.0000   1.0000   1.0000   1.0000   1.0000
     1.0000   1.0000   1.0000   1.0000   1.0000   1.0000   1.0000   1.0000
     1.0000   1.0000   1.0000   1.0000   1.0000   1.0000   1.0000   1.0000
     1.0000   1.0000   1.0000   1.0000   1.0000   1.0000   1.0000   1.0000
     1.0000   1.0000   1.0000   1.0000   1.0000   1.0000   1.0000   1.0000
     1.0000   1.0000   1.0000   1.0000   1.0000   1.0000   1.0000   1.0000
     1.0000   1.0000   1.0000   1.0000   1.0000   1.0000   1.0000   1.0000
     1.0000   1.0000   1.0000   1.0000   1.0000   1.0000   1.0000   1.0000
     1.0000   1.0000   1.0000   1.0000   1.0000   1.0000   1.0694   0.0104
     0.0104   0.0104   0.0000   0.0000   0.0000   0.0000   0.0000   0.0000
     0.0000   0.0000   0.0000   0.0000   0.0000   0.0000   0.0000   0.0000
     0.0000   0.0000   0.0000   0.0000   0.0000   0.0000   0.0000   0.0000
     0.0000   0.0000   0.0000   0.0000   0.0000   0.0000   0.0000   0.0000
     0.0000   0.0000   0.0000   0.0000

          k = 0.0000 0.1650 0.0000 (341287 PWs)   bands (ev):

   -50.7172 -50.7172 -50.7172 -50.7172 -50.7172 -50.7172 -50.7172 -50.7172
   -49.7727 -49.7727 -49.7726 -49.7725 -49.7725 -49.7725 -49.7725 -49.7725
   -49.5133 -49.5132 -49.5132 -49.5132 -49.5132 -49.5132 -49.5131 -49.5131
   -49.4258 -49.4198 -49.4192 -49.4191 -49.4151 -49.4150 -49.4147 -49.4119
   -49.4031 -49.4031 -49.4029 -49.4013 -49.3976 -49.3976 -49.3975 -49.3964
   -49.3212 -49.3212 -49.3212 -49.3212 -49.3212 -49.3211 -49.3208 -49.3207
    -6.2945  -5.8538  -5.1618  -5.0904  -4.9360  -4.9360  -4.7179  -4.5107
    -4.5107  -4.4627  -4.4627  -4.2549  -4.1541  -4.0436  -4.0436  -3.9644
    -3.7854  -3.7081  -3.7081  -3.2762  -3.2762  -3.1131  -3.0353  -2.9361
    -2.7939  -2.7939  -2.6261  -2.6261  -2.4357  -2.3242  -2.3242  -2.2483
    -2.0932  -2.0932  -1.8858  -1.8846  -1.6887  -1.6887  -1.6729  -1.1333
    -1.1333  -1.0503  -1.0186  -0.9504  -0.8819  -0.7815  -0.7815  -0.6919
    -0.5295  -0.4137  -0.3096  -0.1964  -0.1554  -0.1554  -0.1082   0.0536
     0.0776   0.1081   0.1565   0.1565

     occupation numbers 
     1.0000   1.0000   1.0000   1.0000   1.0000   1.0000   1.0000   1.0000
     1.0000   1.0000   1.0000   1.0000   1.0000   1.0000   1.0000   1.0000
     1.0000   1.0000   1.0000   1.0000   1.0000   1.0000   1.0000   1.0000
     1.0000   1.0000   1.0000   1.0000   1.0000   1.0000   1.0000   1.0000
     1.0000   1.0000   1.0000   1.0000   1.0000   1.0000   1.0000   1.0000
     1.0000   1.0000   1.0000   1.0000   1.0000   1.0000   1.0000   1.0000
     1.0000   1.0000   1.0000   1.0000   1.0000   1.0000   1.0000   1.0000
     1.0000   1.0000   1.0000   1.0000   1.0000   1.0000   1.0000   1.0000
     1.0000   1.0000   1.0000   1.0044   1.0044   1.0799   1.0171   0.5756
     0.0568   0.0568   0.0003   0.0003   0.0000   0.0000   0.0000   0.0000
     0.0000   0.0000   0.0000   0.0000   0.0000   0.0000   0.0000   0.0000
     0.0000   0.0000   0.0000   0.0000   0.0000   0.0000   0.0000   0.0000
     0.0000   0.0000   0.0000   0.0000   0.0000   0.0000   0.0000   0.0000
     0.0000   0.0000   0.0000   0.0000

          k = 0.0000 0.3299 0.0000 (341325 PWs)   bands (ev):

   -50.7172 -50.7172 -50.7172 -50.7172 -50.7172 -50.7172 -50.7172 -50.7172
   -49.7727 -49.7727 -49.7726 -49.7726 -49.7726 -49.7725 -49.7725 -49.7725
   -49.5133 -49.5132 -49.5132 -49.5132 -49.5132 -49.5132 -49.5131 -49.5131
   -49.4251 -49.4211 -49.4193 -49.4193 -49.4149 -49.4148 -49.4138 -49.4121
   -49.4031 -49.4031 -49.4027 -49.4015 -49.3975 -49.3975 -49.3973 -49.3966
   -49.3212 -49.3212 -49.3212 -49.3212 -49.3211 -49.3211 -49.3208 -49.3208
    -6.1976  -5.7564  -5.5181  -5.0743  -5.0665  -5.0665  -4.9917  -4.6218
    -4.6218  -4.3050  -4.1661  -4.1661  -4.0530  -3.8678  -3.8678  -3.7099
    -3.6940  -3.6940  -3.3758  -3.2337  -3.0230  -3.0230  -2.9699  -2.9699
    -2.9443  -2.8372  -2.8372  -2.5878  -2.4789  -2.4789  -2.3080  -2.2491
    -2.1486  -2.1486  -1.8238  -1.7922  -1.7922  -1.7589  -1.7396  -1.4598
    -1.4156  -1.4084  -1.4084  -1.3060  -0.9034  -0.8731  -0.8553  -0.8553
    -0.7567  -0.6862  -0.2816  -0.2372  -0.0743  -0.0743  -0.0568  -0.0091
    -0.0091   0.0295   0.1103   0.1654

     occupation numbers 
     1.0000   1.0000   1.0000   1.0000   1.0000   1.0000   1.0000   1.0000
     1.0000   1.0000   1.0000   1.0000   1.0000   1.0000   1.0000   1.0000
     1.0000   1.0000   1.0000   1.0000   1.0000   1.0000   1.0000   1.0000
     1.0000   1.0000   1.0000   1.0000   1.0000   1.0000   1.0000   1.0000
     1.0000   1.0000   1.0000   1.0000   1.0000   1.0000   1.0000   1.0000
     1.0000   1.0000   1.0000   1.0000   1.0000   1.0000   1.0000   1.0000
     1.0000   1.0000   1.0000   1.0000   1.0000   1.0000   1.0000   1.0000
     1.0000   1.0000   1.0000   1.0000   1.0000   1.0000   1.0000   1.0000
     1.0000   1.0000   1.0001   1.0132   0.9834   0.9834   0.7595   0.7595
     0.6212   0.1418   0.1418   0.0001   0.0000   0.0000   0.0000   0.0000
     0.0000   0.0000   0.0000   0.0000   0.0000   0.0000   0.0000   0.0000
     0.0000   0.0000   0.0000   0.0000   0.0000   0.0000   0.0000   0.0000
     0.0000   0.0000   0.0000   0.0000   0.0000   0.0000   0.0000   0.0000
     0.0000   0.0000   0.0000   0.0000

          k = 0.0000 0.4949 0.0000 (341402 PWs)   bands (ev):

   -50.7172 -50.7172 -50.7172 -50.7172 -50.7172 -50.7172 -50.7172 -50.7172
   -49.7727 -49.7726 -49.7726 -49.7726 -49.7726 -49.7725 -49.7725 -49.7725
   -49.5133 -49.5132 -49.5132 -49.5132 -49.5132 -49.5132 -49.5131 -49.5131
   -49.4240 -49.4227 -49.4194 -49.4194 -49.4148 -49.4147 -49.4130 -49.4124
   -49.4032 -49.4032 -49.4023 -49.4019 -49.3975 -49.3975 -49.3971 -49.3968
   -49.3212 -49.3212 -49.3212 -49.3212 -49.3210 -49.3210 -49.3209 -49.3209
    -6.0360  -5.8095  -5.5941  -5.3667  -5.1321  -5.1321  -4.8275  -4.6867
    -4.6867  -4.5981  -3.9191  -3.9191  -3.8855  -3.7968  -3.7968  -3.6549
    -3.3997  -3.3997  -3.3311  -3.3311  -3.1017  -2.9975  -2.9975  -2.8892
    -2.8892  -2.7998  -2.6577  -2.6004  -2.5647  -2.5647  -2.4428  -2.1983
    -2.1983  -2.0952  -1.9968  -1.9796  -1.9796  -1.9284  -1.7976  -1.7258
    -1.5474  -1.3594  -1.3594  -1.3319  -1.2519  -1.0992  -1.0714  -1.0714
    -0.5486  -0.5404  -0.5218  -0.2820  -0.2587  -0.0865  -0.0864  -0.0312
     0.0117   0.0117   0.2347   0.2779

     occupation numbers 
     1.0000   1.0000   1.0000   1.0000   1.0000   1.0000   1.0000   1.0000
     1.0000   1.0000   1.0000   1.0000   1.0000   1.0000   1.0000   1.0000
     1.0000   1.0000   1.0000   1.0000   1.0000   1.0000   1.0000   1.0000
     1.0000   1.0000   1.0000   1.0000   1.0000   1.0000   1.0000   1.0000
     1.0000   1.0000   1.0000   1.0000   1.0000   1.0000   1.0000   1.0000
     1.0000   1.0000   1.0000   1.0000   1.0000   1.0000   1.0000   1.0000
     1.0000   1.0000   1.0000   1.0000   1.0000   1.0000   1.0000   1.0000
     1.0000   1.0000   1.0000   1.0000   1.0000   1.0000   1.0000   1.0000
     1.0001   1.0001   1.0008   1.0008   1.0829   0.8903   0.8903   0.3322
     0.3322   0.0651   0.0009   0.0001   0.0000   0.0000   0.0000   0.0000
     0.0000   0.0000   0.0000   0.0000   0.0000   0.0000   0.0000   0.0000
     0.0000   0.0000   0.0000   0.0000   0.0000   0.0000   0.0000   0.0000
     0.0000   0.0000   0.0000   0.0000   0.0000   0.0000   0.0000   0.0000
     0.0000   0.0000   0.0000   0.0000

          k = 0.1429 0.2474 0.0000 (341214 PWs)   bands (ev):

   -50.7172 -50.7172 -50.7172 -50.7172 -50.7172 -50.7172 -50.7172 -50.7172
   -49.7727 -49.7727 -49.7726 -49.7726 -49.7725 -49.7725 -49.7725 -49.7725
   -49.5133 -49.5132 -49.5132 -49.5132 -49.5132 -49.5132 -49.5131 -49.5131
   -49.4254 -49.4203 -49.4203 -49.4186 -49.4154 -49.4143 -49.4143 -49.4120
   -49.4032 -49.4029 -49.4029 -49.4014 -49.3976 -49.3975 -49.3974 -49.3965
   -49.3213 -49.3212 -49.3212 -49.3212 -49.3211 -49.3211 -49.3208 -49.3208
    -6.2299  -5.7889  -5.3241  -5.3241  -5.0246  -4.8798  -4.8798  -4.6537
    -4.6434  -4.2016  -4.2003  -4.1127  -4.1127  -4.0866  -3.9669  -3.9669
    -3.5160  -3.5160  -3.4488  -3.4046  -3.1689  -3.1689  -3.0144  -2.9743
    -2.7611  -2.7611  -2.6196  -2.5452  -2.5452  -2.5273  -2.3158  -2.2124
    -2.2124  -2.0175  -2.0175  -1.8365  -1.8100  -1.5898  -1.5898  -1.4492
    -1.4337  -1.4295  -1.0821  -1.0569  -1.0569  -0.9597  -0.9457  -0.7887
    -0.6723  -0.6723  -0.1938  -0.1938  -0.1689  -0.0694  -0.0374   0.0340
     0.0383   0.0755   0.1611   0.1611

     occupation numbers 
     1.0000   1.0000   1.0000   1.0000   1.0000   1.0000   1.0000   1.0000
     1.0000   1.0000   1.0000   1.0000   1.0000   1.0000   1.0000   1.0000
     1.0000   1.0000   1.0000   1.0000   1.0000   1.0000   1.0000   1.0000
     1.0000   1.0000   1.0000   1.0000   1.0000   1.0000   1.0000   1.0000
     1.0000   1.0000   1.0000   1.0000   1.0000   1.0000   1.0000   1.0000
     1.0000   1.0000   1.0000   1.0000   1.0000   1.0000   1.0000   1.0000
     1.0000   1.0000   1.0000   1.0000   1.0000   1.0000   1.0000   1.0000
     1.0000   1.0000   1.0000   1.0000   1.0000   1.0000   1.0000   1.0000
     1.0000   1.0000   1.0000   1.0000   1.0455   1.0456   0.9555   0.7821
     0.0251   0.0251   0.0002   0.0000   0.0000   0.0000   0.0000   0.0000
     0.0000   0.0000   0.0000   0.0000   0.0000   0.0000   0.0000   0.0000
     0.0000   0.0000   0.0000   0.0000   0.0000   0.0000   0.0000   0.0000
     0.0000   0.0000   0.0000   0.0000   0.0000   0.0000   0.0000   0.0000
     0.0000   0.0000   0.0000   0.0000

          k = 0.1429 0.4124 0.0000 (341352 PWs)   bands (ev):

   -50.7172 -50.7172 -50.7172 -50.7172 -50.7172 -50.7172 -50.7172 -50.7172
   -49.7727 -49.7727 -49.7726 -49.7726 -49.7726 -49.7725 -49.7725 -49.7725
   -49.5133 -49.5132 -49.5132 -49.5132 -49.5132 -49.5132 -49.5131 -49.5131
   -49.4245 -49.4218 -49.4206 -49.4183 -49.4155 -49.4140 -49.4134 -49.4123
   -49.4034 -49.4028 -49.4025 -49.4017 -49.3976 -49.3974 -49.3973 -49.3967
   -49.3213 -49.3212 -49.3212 -49.3211 -49.3211 -49.3210 -49.3209 -49.3208
    -6.1007  -5.6590  -5.6478  -5.4217  -5.2043  -4.9774  -4.8931  -4.7472
    -4.4347  -4.3238  -4.2767  -4.2071  -3.9523  -3.8586  -3.6294  -3.5187
    -3.4996  -3.4600  -3.3852  -3.2804  -3.1469  -3.1029  -2.9611  -2.9336
    -2.8614  -2.8556  -2.5911  -2.5179  -2.4969  -2.3822  -2.3659  -2.2067
    -2.1784  -2.1292  -2.1181  -2.1039  -1.8607  -1.8284  -1.7617  -1.6297
    -1.6221  -1.4823  -1.3827  -1.3277  -1.2321  -1.2017  -0.9207  -0.8744
    -0.7205  -0.5937  -0.4880  -0.2810  -0.1735  -0.1113  -0.0801  -0.0124
     0.0440   0.0987   0.1552   0.2297

     occupation numbers 
     1.0000   1.0000   1.0000   1.0000   1.0000   1.0000   1.0000   1.0000
     1.0000   1.0000   1.0000   1.0000   1.0000   1.0000   1.0000   1.0000
     1.0000   1.0000   1.0000   1.0000   1.0000   1.0000   1.0000   1.0000
     1.0000   1.0000   1.0000   1.0000   1.0000   1.0000   1.0000   1.0000
     1.0000   1.0000   1.0000   1.0000   1.0000   1.0000   1.0000   1.0000
     1.0000   1.0000   1.0000   1.0000   1.0000   1.0000   1.0000   1.0000
     1.0000   1.0000   1.0000   1.0000   1.0000   1.0000   1.0000   1.0000
     1.0000   1.0000   1.0000   1.0000   1.0000   1.0000   1.0000   1.0000
     1.0000   1.0000   1.0001   1.0039   1.0606   1.0827   0.7131   0.5619
     0.2176   0.1976   0.0001   0.0000   0.0000   0.0000   0.0000   0.0000
     0.0000   0.0000   0.0000   0.0000   0.0000   0.0000   0.0000   0.0000
     0.0000   0.0000   0.0000   0.0000   0.0000   0.0000   0.0000   0.0000
     0.0000   0.0000   0.0000   0.0000   0.0000   0.0000   0.0000   0.0000
     0.0000   0.0000   0.0000   0.0000

          k = 0.1429 0.5774 0.0000 (341402 PWs)   bands (ev):

   -50.7172 -50.7172 -50.7172 -50.7172 -50.7172 -50.7172 -50.7172 -50.7172
   -49.7727 -49.7726 -49.7726 -49.7726 -49.7726 -49.7725 -49.7725 -49.7725
   -49.5133 -49.5132 -49.5132 -49.5132 -49.5132 -49.5132 -49.5131 -49.5131
   -49.4232 -49.4232 -49.4208 -49.4181 -49.4156 -49.4139 -49.4128 -49.4127
   -49.4034 -49.4028 -49.4021 -49.4021 -49.3976 -49.3974 -49.3970 -49.3970
   -49.3213 -49.3212 -49.3212 -49.3211 -49.3210 -49.3210 -49.3210 -49.3209
    -5.9067  -5.9067  -5.4642  -5.4642  -5.4543  -5.0100  -4.7802  -4.6963
    -4.6963  -4.3344  -4.2391  -3.9103  -3.8927  -3.7526  -3.7526  -3.5928
    -3.4480  -3.3969  -3.3170  -3.2581  -3.2189  -2.7771  -2.7752  -2.7752
    -2.7751  -2.7422  -2.6782  -2.6782  -2.6496  -2.5264  -2.3637  -2.3079
    -2.3079  -2.1403  -2.1403  -2.0571  -1.9517  -1.8615  -1.7544  -1.7544
    -1.6328  -1.6328  -1.5263  -1.3891  -1.2499  -1.2499  -1.1261  -0.7810
    -0.6747  -0.6747  -0.4075  -0.4075  -0.1736  -0.1005  -0.1005  -0.0369
     0.0264   0.0491   0.3288   0.3288

     occupation numbers 
     1.0000   1.0000   1.0000   1.0000   1.0000   1.0000   1.0000   1.0000
     1.0000   1.0000   1.0000   1.0000   1.0000   1.0000   1.0000   1.0000
     1.0000   1.0000   1.0000   1.0000   1.0000   1.0000   1.0000   1.0000
     1.0000   1.0000   1.0000   1.0000   1.0000   1.0000   1.0000   1.0000
     1.0000   1.0000   1.0000   1.0000   1.0000   1.0000   1.0000   1.0000
     1.0000   1.0000   1.0000   1.0000   1.0000   1.0000   1.0000   1.0000
     1.0000   1.0000   1.0000   1.0000   1.0000   1.0000   1.0000   1.0000
     1.0000   1.0000   1.0000   1.0000   1.0000   1.0000   1.0000   1.0000
     1.0000   1.0001   1.0012   1.0072   1.0183   0.0379   0.0362   0.0362
     0.0360   0.0149   0.0019   0.0019   0.0007   0.0000   0.0000   0.0000
     0.0000   0.0000   0.0000   0.0000   0.0000   0.0000   0.0000   0.0000
     0.0000   0.0000   0.0000   0.0000   0.0000   0.0000   0.0000   0.0000
     0.0000   0.0000   0.0000   0.0000   0.0000   0.0000   0.0000   0.0000
     0.0000   0.0000   0.0000   0.0000

          k = 0.2857 0.4949 0.0000 (341466 PWs)   bands (ev):

   -50.7172 -50.7172 -50.7172 -50.7172 -50.7172 -50.7172 -50.7172 -50.7172
   -49.7727 -49.7726 -49.7726 -49.7726 -49.7726 -49.7726 -49.7725 -49.7725
   -49.5133 -49.5132 -49.5132 -49.5132 -49.5132 -49.5132 -49.5131 -49.5131
   -49.4234 -49.4221 -49.4221 -49.4173 -49.4163 -49.4133 -49.4132 -49.4127
   -49.4035 -49.4025 -49.4024 -49.4021 -49.3976 -49.3972 -49.3972 -49.3970
   -49.3213 -49.3212 -49.3211 -49.3211 -49.3210 -49.3210 -49.3210 -49.3209
    -5.9391  -5.7127  -5.7127  -5.4967  -5.2694  -5.2694  -4.7290  -4.4998
    -4.4998  -4.3750  -4.3637  -3.9622  -3.9172  -3.8917  -3.7854  -3.5555
    -3.5555  -3.4916  -3.1350  -3.1149  -3.0387  -3.0387  -2.7153  -2.6999
    -2.6809  -2.6809  -2.5766  -2.5766  -2.5196  -2.5196  -2.4239  -2.4117
    -2.2821  -2.1932  -2.1932  -2.1106  -1.9517  -1.9463  -1.8621  -1.8621
    -1.6900  -1.6261  -1.4719  -1.4719  -1.4437  -1.1483  -1.0099  -1.0099
    -0.8194  -0.4506  -0.4506  -0.3851  -0.1053  -0.1053  -0.0647   0.0384
     0.0384   0.0850   0.0956   0.2572

     occupation numbers 
     1.0000   1.0000   1.0000   1.0000   1.0000   1.0000   1.0000   1.0000
     1.0000   1.0000   1.0000   1.0000   1.0000   1.0000   1.0000   1.0000
     1.0000   1.0000   1.0000   1.0000   1.0000   1.0000   1.0000   1.0000
     1.0000   1.0000   1.0000   1.0000   1.0000   1.0000   1.0000   1.0000
     1.0000   1.0000   1.0000   1.0000   1.0000   1.0000   1.0000   1.0000
     1.0000   1.0000   1.0000   1.0000   1.0000   1.0000   1.0000   1.0000
     1.0000   1.0000   1.0000   1.0000   1.0000   1.0000   1.0000   1.0000
     1.0000   1.0000   1.0000   1.0000   1.0000   1.0000   1.0000   1.0000
     1.0000   1.0000   1.0685   1.0792   1.0252   1.0252   0.0066   0.0040
     0.0021   0.0021   0.0000   0.0000   0.0000   0.0000   0.0000   0.0000
     0.0000   0.0000   0.0000   0.0000   0.0000   0.0000   0.0000   0.0000
     0.0000   0.0000   0.0000   0.0000   0.0000   0.0000   0.0000   0.0000
     0.0000   0.0000   0.0000   0.0000   0.0000   0.0000   0.0000   0.0000
     0.0000   0.0000   0.0000   0.0000

          k =-0.1429 0.0825 0.0000 (341287 PWs)   bands (ev):

   -50.7172 -50.7172 -50.7172 -50.7172 -50.7172 -50.7172 -50.7172 -50.7172
   -49.7727 -49.7727 -49.7726 -49.7725 -49.7725 -49.7725 -49.7725 -49.7725
   -49.5133 -49.5132 -49.5132 -49.5132 -49.5132 -49.5131 -49.5131 -49.5131
   -49.4258 -49.4198 -49.4192 -49.4192 -49.4151 -49.4150 -49.4147 -49.4119
   -49.4031 -49.4031 -49.4029 -49.4013 -49.3976 -49.3975 -49.3975 -49.3964
   -49.3213 -49.3212 -49.3212 -49.3212 -49.3212 -49.3211 -49.3208 -49.3207
    -6.2945  -5.8538  -5.1618  -5.0904  -4.9360  -4.9360  -4.7179  -4.5107
    -4.5107  -4.4627  -4.4627  -4.2549  -4.1541  -4.0436  -4.0436  -3.9644
    -3.7854  -3.7081  -3.7081  -3.2762  -3.2762  -3.1131  -3.0353  -2.9361
    -2.7939  -2.7939  -2.6261  -2.6261  -2.4357  -2.3242  -2.3242  -2.2483
    -2.0932  -2.0932  -1.8858  -1.8846  -1.6887  -1.6887  -1.6729  -1.1333
    -1.1333  -1.0503  -1.0186  -0.9504  -0.8819  -0.7815  -0.7815  -0.6919
    -0.5295  -0.4137  -0.3096  -0.1964  -0.1554  -0.1554  -0.1082   0.0536
     0.0776   0.1081   0.1565   0.1565

     occupation numbers 
     1.0000   1.0000   1.0000   1.0000   1.0000   1.0000   1.0000   1.0000
     1.0000   1.0000   1.0000   1.0000   1.0000   1.0000   1.0000   1.0000
     1.0000   1.0000   1.0000   1.0000   1.0000   1.0000   1.0000   1.0000
     1.0000   1.0000   1.0000   1.0000   1.0000   1.0000   1.0000   1.0000
     1.0000   1.0000   1.0000   1.0000   1.0000   1.0000   1.0000   1.0000
     1.0000   1.0000   1.0000   1.0000   1.0000   1.0000   1.0000   1.0000
     1.0000   1.0000   1.0000   1.0000   1.0000   1.0000   1.0000   1.0000
     1.0000   1.0000   1.0000   1.0000   1.0000   1.0000   1.0000   1.0000
     1.0000   1.0000   1.0000   1.0044   1.0044   1.0798   1.0171   0.5756
     0.0568   0.0568   0.0003   0.0003   0.0000   0.0000   0.0000   0.0000
     0.0000   0.0000   0.0000   0.0000   0.0000   0.0000   0.0000   0.0000
     0.0000   0.0000   0.0000   0.0000   0.0000   0.0000   0.0000   0.0000
     0.0000   0.0000   0.0000   0.0000   0.0000   0.0000   0.0000   0.0000
     0.0000   0.0000   0.0000   0.0000

          k =-0.2857 0.1650 0.0000 (341325 PWs)   bands (ev):

   -50.7172 -50.7172 -50.7172 -50.7172 -50.7172 -50.7172 -50.7172 -50.7172
   -49.7727 -49.7727 -49.7726 -49.7726 -49.7725 -49.7725 -49.7725 -49.7725
   -49.5133 -49.5132 -49.5132 -49.5132 -49.5132 -49.5131 -49.5131 -49.5131
   -49.4251 -49.4211 -49.4193 -49.4193 -49.4149 -49.4149 -49.4138 -49.4121
   -49.4031 -49.4031 -49.4027 -49.4015 -49.3975 -49.3975 -49.3973 -49.3966
   -49.3213 -49.3212 -49.3212 -49.3212 -49.3211 -49.3211 -49.3208 -49.3208
    -6.1976  -5.7564  -5.5181  -5.0743  -5.0665  -5.0665  -4.9917  -4.6218
    -4.6218  -4.3050  -4.1661  -4.1661  -4.0530  -3.8678  -3.8678  -3.7099
    -3.6940  -3.6940  -3.3758  -3.2337  -3.0230  -3.0230  -2.9699  -2.9699
    -2.9443  -2.8372  -2.8372  -2.5878  -2.4789  -2.4789  -2.3080  -2.2491
    -2.1486  -2.1486  -1.8238  -1.7922  -1.7922  -1.7589  -1.7396  -1.4598
    -1.4156  -1.4084  -1.4084  -1.3060  -0.9034  -0.8731  -0.8553  -0.8553
    -0.7567  -0.6862  -0.2816  -0.2372  -0.0743  -0.0743  -0.0568  -0.0091
    -0.0091   0.0295   0.1103   0.1654

     occupation numbers 
     1.0000   1.0000   1.0000   1.0000   1.0000   1.0000   1.0000   1.0000
     1.0000   1.0000   1.0000   1.0000   1.0000   1.0000   1.0000   1.0000
     1.0000   1.0000   1.0000   1.0000   1.0000   1.0000   1.0000   1.0000
     1.0000   1.0000   1.0000   1.0000   1.0000   1.0000   1.0000   1.0000
     1.0000   1.0000   1.0000   1.0000   1.0000   1.0000   1.0000   1.0000
     1.0000   1.0000   1.0000   1.0000   1.0000   1.0000   1.0000   1.0000
     1.0000   1.0000   1.0000   1.0000   1.0000   1.0000   1.0000   1.0000
     1.0000   1.0000   1.0000   1.0000   1.0000   1.0000   1.0000   1.0000
     1.0000   1.0000   1.0001   1.0132   0.9834   0.9834   0.7595   0.7595
     0.6213   0.1418   0.1418   0.0001   0.0000   0.0000   0.0000   0.0000
     0.0000   0.0000   0.0000   0.0000   0.0000   0.0000   0.0000   0.0000
     0.0000   0.0000   0.0000   0.0000   0.0000   0.0000   0.0000   0.0000
     0.0000   0.0000   0.0000   0.0000   0.0000   0.0000   0.0000   0.0000
     0.0000   0.0000   0.0000   0.0000

          k =-0.4286 0.2474 0.0000 (341402 PWs)   bands (ev):

   -50.7172 -50.7172 -50.7172 -50.7172 -50.7172 -50.7172 -50.7172 -50.7172
   -49.7727 -49.7726 -49.7726 -49.7726 -49.7725 -49.7725 -49.7725 -49.7725
   -49.5133 -49.5132 -49.5132 -49.5132 -49.5132 -49.5131 -49.5131 -49.5131
   -49.4240 -49.4227 -49.4194 -49.4194 -49.4147 -49.4147 -49.4130 -49.4124
   -49.4032 -49.4032 -49.4023 -49.4019 -49.3975 -49.3975 -49.3971 -49.3968
   -49.3213 -49.3212 -49.3212 -49.3212 -49.3210 -49.3210 -49.3209 -49.3209
    -6.0360  -5.8095  -5.5941  -5.3667  -5.1321  -5.1321  -4.8275  -4.6867
    -4.6867  -4.5981  -3.9191  -3.9191  -3.8855  -3.7968  -3.7968  -3.6549
    -3.3997  -3.3997  -3.3311  -3.3311  -3.1017  -2.9975  -2.9975  -2.8892
    -2.8892  -2.7998  -2.6577  -2.6004  -2.5647  -2.5647  -2.4428  -2.1983
    -2.1983  -2.0952  -1.9968  -1.9796  -1.9796  -1.9284  -1.7976  -1.7258
    -1.5474  -1.3594  -1.3594  -1.3318  -1.2519  -1.0992  -1.0714  -1.0714
    -0.5486  -0.5404  -0.5218  -0.2820  -0.2587  -0.0864  -0.0864  -0.0312
     0.0117   0.0117   0.2347   0.2779

     occupation numbers 
     1.0000   1.0000   1.0000   1.0000   1.0000   1.0000   1.0000   1.0000
     1.0000   1.0000   1.0000   1.0000   1.0000   1.0000   1.0000   1.0000
     1.0000   1.0000   1.0000   1.0000   1.0000   1.0000   1.0000   1.0000
     1.0000   1.0000   1.0000   1.0000   1.0000   1.0000   1.0000   1.0000
     1.0000   1.0000   1.0000   1.0000   1.0000   1.0000   1.0000   1.0000
     1.0000   1.0000   1.0000   1.0000   1.0000   1.0000   1.0000   1.0000
     1.0000   1.0000   1.0000   1.0000   1.0000   1.0000   1.0000   1.0000
     1.0000   1.0000   1.0000   1.0000   1.0000   1.0000   1.0000   1.0000
     1.0001   1.0001   1.0008   1.0008   1.0829   0.8903   0.8903   0.3322
     0.3322   0.0651   0.0009   0.0001   0.0000   0.0000   0.0000   0.0000
     0.0000   0.0000   0.0000   0.0000   0.0000   0.0000   0.0000   0.0000
     0.0000   0.0000   0.0000   0.0000   0.0000   0.0000   0.0000   0.0000
     0.0000   0.0000   0.0000   0.0000   0.0000   0.0000   0.0000   0.0000
     0.0000   0.0000   0.0000   0.0000

          k = 0.2857-0.0000 0.0000 (341214 PWs)   bands (ev):

   -50.7172 -50.7172 -50.7172 -50.7172 -50.7172 -50.7172 -50.7172 -50.7172
   -49.7727 -49.7727 -49.7726 -49.7725 -49.7725 -49.7725 -49.7725 -49.7725
   -49.5133 -49.5132 -49.5132 -49.5132 -49.5132 -49.5131 -49.5131 -49.5131
   -49.4254 -49.4203 -49.4203 -49.4186 -49.4154 -49.4143 -49.4143 -49.4120
   -49.4032 -49.4029 -49.4029 -49.4014 -49.3976 -49.3974 -49.3974 -49.3965
   -49.3213 -49.3212 -49.3212 -49.3212 -49.3211 -49.3211 -49.3208 -49.3208
    -6.2299  -5.7889  -5.3241  -5.3241  -5.0246  -4.8798  -4.8798  -4.6537
    -4.6434  -4.2016  -4.2003  -4.1127  -4.1127  -4.0866  -3.9669  -3.9669
    -3.5161  -3.5160  -3.4488  -3.4046  -3.1689  -3.1689  -3.0144  -2.9743
    -2.7611  -2.7611  -2.6196  -2.5452  -2.5452  -2.5273  -2.3158  -2.2124
    -2.2124  -2.0175  -2.0175  -1.8365  -1.8100  -1.5898  -1.5898  -1.4492
    -1.4337  -1.4295  -1.0821  -1.0569  -1.0569  -0.9598  -0.9457  -0.7887
    -0.6723  -0.6723  -0.1938  -0.1938  -0.1689  -0.0694  -0.0374   0.0340
     0.0383   0.0755   0.1611   0.1611

     occupation numbers 
     1.0000   1.0000   1.0000   1.0000   1.0000   1.0000   1.0000   1.0000
     1.0000   1.0000   1.0000   1.0000   1.0000   1.0000   1.0000   1.0000
     1.0000   1.0000   1.0000   1.0000   1.0000   1.0000   1.0000   1.0000
     1.0000   1.0000   1.0000   1.0000   1.0000   1.0000   1.0000   1.0000
     1.0000   1.0000   1.0000   1.0000   1.0000   1.0000   1.0000   1.0000
     1.0000   1.0000   1.0000   1.0000   1.0000   1.0000   1.0000   1.0000
     1.0000   1.0000   1.0000   1.0000   1.0000   1.0000   1.0000   1.0000
     1.0000   1.0000   1.0000   1.0000   1.0000   1.0000   1.0000   1.0000
     1.0000   1.0000   1.0000   1.0000   1.0455   1.0455   0.9555   0.7821
     0.0251   0.0251   0.0002   0.0000   0.0000   0.0000   0.0000   0.0000
     0.0000   0.0000   0.0000   0.0000   0.0000   0.0000   0.0000   0.0000
     0.0000   0.0000   0.0000   0.0000   0.0000   0.0000   0.0000   0.0000
     0.0000   0.0000   0.0000   0.0000   0.0000   0.0000   0.0000   0.0000
     0.0000   0.0000   0.0000   0.0000

          k =-0.2857 0.3299 0.0000 (341352 PWs)   bands (ev):

   -50.7172 -50.7172 -50.7172 -50.7172 -50.7172 -50.7172 -50.7172 -50.7172
   -49.7727 -49.7727 -49.7726 -49.7726 -49.7726 -49.7725 -49.7725 -49.7725
   -49.5133 -49.5132 -49.5132 -49.5132 -49.5132 -49.5132 -49.5131 -49.5131
   -49.4245 -49.4218 -49.4206 -49.4183 -49.4155 -49.4140 -49.4134 -49.4123
   -49.4034 -49.4028 -49.4025 -49.4017 -49.3976 -49.3974 -49.3973 -49.3967
   -49.3213 -49.3212 -49.3212 -49.3211 -49.3211 -49.3210 -49.3209 -49.3208
    -6.1007  -5.6590  -5.6478  -5.4217  -5.2043  -4.9774  -4.8931  -4.7472
    -4.4347  -4.3238  -4.2767  -4.2071  -3.9523  -3.8586  -3.6294  -3.5187
    -3.4996  -3.4600  -3.3852  -3.2804  -3.1469  -3.1029  -2.9611  -2.9336
    -2.8614  -2.8556  -2.5910  -2.5180  -2.4968  -2.3822  -2.3659  -2.2067
    -2.1784  -2.1292  -2.1181  -2.1039  -1.8607  -1.8285  -1.7617  -1.6297
    -1.6221  -1.4823  -1.3827  -1.3277  -1.2321  -1.2017  -0.9207  -0.8744
    -0.7205  -0.5937  -0.4880  -0.2810  -0.1735  -0.1113  -0.0801  -0.0124
     0.0440   0.0987   0.1552   0.2297

     occupation numbers 
     1.0000   1.0000   1.0000   1.0000   1.0000   1.0000   1.0000   1.0000
     1.0000   1.0000   1.0000   1.0000   1.0000   1.0000   1.0000   1.0000
     1.0000   1.0000   1.0000   1.0000   1.0000   1.0000   1.0000   1.0000
     1.0000   1.0000   1.0000   1.0000   1.0000   1.0000   1.0000   1.0000
     1.0000   1.0000   1.0000   1.0000   1.0000   1.0000   1.0000   1.0000
     1.0000   1.0000   1.0000   1.0000   1.0000   1.0000   1.0000   1.0000
     1.0000   1.0000   1.0000   1.0000   1.0000   1.0000   1.0000   1.0000
     1.0000   1.0000   1.0000   1.0000   1.0000   1.0000   1.0000   1.0000
     1.0000   1.0000   1.0001   1.0039   1.0606   1.0827   0.7131   0.5619
     0.2176   0.1976   0.0001   0.0000   0.0000   0.0000   0.0000   0.0000
     0.0000   0.0000   0.0000   0.0000   0.0000   0.0000   0.0000   0.0000
     0.0000   0.0000   0.0000   0.0000   0.0000   0.0000   0.0000   0.0000
     0.0000   0.0000   0.0000   0.0000   0.0000   0.0000   0.0000   0.0000
     0.0000   0.0000   0.0000   0.0000

          k = 0.4286 0.0825 0.0000 (341352 PWs)   bands (ev):

   -50.7172 -50.7172 -50.7172 -50.7172 -50.7172 -50.7172 -50.7172 -50.7172
   -49.7727 -49.7727 -49.7726 -49.7726 -49.7726 -49.7725 -49.7725 -49.7725
   -49.5133 -49.5132 -49.5132 -49.5132 -49.5132 -49.5131 -49.5131 -49.5131
   -49.4245 -49.4218 -49.4206 -49.4183 -49.4155 -49.4140 -49.4134 -49.4123
   -49.4034 -49.4028 -49.4025 -49.4017 -49.3976 -49.3974 -49.3973 -49.3967
   -49.3213 -49.3212 -49.3212 -49.3211 -49.3211 -49.3210 -49.3209 -49.3208
    -6.1007  -5.6590  -5.6478  -5.4217  -5.2043  -4.9774  -4.8931  -4.7472
    -4.4347  -4.3238  -4.2767  -4.2071  -3.9523  -3.8586  -3.6294  -3.5187
    -3.4996  -3.4600  -3.3852  -3.2804  -3.1469  -3.1029  -2.9611  -2.9336
    -2.8614  -2.8556  -2.5911  -2.5180  -2.4969  -2.3822  -2.3659  -2.2067
    -2.1784  -2.1292  -2.1181  -2.1039  -1.8607  -1.8284  -1.7617  -1.6297
    -1.6221  -1.4823  -1.3827  -1.3277  -1.2321  -1.2017  -0.9207  -0.8744
    -0.7205  -0.5937  -0.4880  -0.2810  -0.1735  -0.1113  -0.0801  -0.0124
     0.0440   0.0986   0.1552   0.2297

     occupation numbers 
     1.0000   1.0000   1.0000   1.0000   1.0000   1.0000   1.0000   1.0000
     1.0000   1.0000   1.0000   1.0000   1.0000   1.0000   1.0000   1.0000
     1.0000   1.0000   1.0000   1.0000   1.0000   1.0000   1.0000   1.0000
     1.0000   1.0000   1.0000   1.0000   1.0000   1.0000   1.0000   1.0000
     1.0000   1.0000   1.0000   1.0000   1.0000   1.0000   1.0000   1.0000
     1.0000   1.0000   1.0000   1.0000   1.0000   1.0000   1.0000   1.0000
     1.0000   1.0000   1.0000   1.0000   1.0000   1.0000   1.0000   1.0000
     1.0000   1.0000   1.0000   1.0000   1.0000   1.0000   1.0000   1.0000
     1.0000   1.0000   1.0001   1.0039   1.0606   1.0827   0.7131   0.5619
     0.2176   0.1976   0.0001   0.0000   0.0000   0.0000   0.0000   0.0000
     0.0000   0.0000   0.0000   0.0000   0.0000   0.0000   0.0000   0.0000
     0.0000   0.0000   0.0000   0.0000   0.0000   0.0000   0.0000   0.0000
     0.0000   0.0000   0.0000   0.0000   0.0000   0.0000   0.0000   0.0000
     0.0000   0.0000   0.0000   0.0000

          k =-0.4286 0.4124 0.0000 (341402 PWs)   bands (ev):

   -50.7172 -50.7172 -50.7172 -50.7172 -50.7172 -50.7172 -50.7172 -50.7172
   -49.7726 -49.7726 -49.7726 -49.7726 -49.7726 -49.7725 -49.7725 -49.7725
   -49.5133 -49.5132 -49.5132 -49.5132 -49.5132 -49.5132 -49.5131 -49.5131
   -49.4232 -49.4232 -49.4208 -49.4181 -49.4156 -49.4139 -49.4128 -49.4128
   -49.4034 -49.4028 -49.4021 -49.4021 -49.3976 -49.3974 -49.3970 -49.3970
   -49.3213 -49.3212 -49.3212 -49.3211 -49.3210 -49.3210 -49.3210 -49.3209
    -5.9067  -5.9067  -5.4642  -5.4642  -5.4543  -5.0100  -4.7802  -4.6963
    -4.6963  -4.3344  -4.2391  -3.9103  -3.8927  -3.7526  -3.7526  -3.5928
    -3.4480  -3.3969  -3.3170  -3.2581  -3.2189  -2.7771  -2.7752  -2.7752
    -2.7751  -2.7422  -2.6782  -2.6782  -2.6496  -2.5264  -2.3637  -2.3079
[...]
     atom   32 type  1   force =    -0.00003474    0.00002816   -3.43653519
     atom   33 type  1   force =     0.00000334    0.00003186   -8.59546144
     atom   34 type  1   force =     0.00000254    0.00001625   -6.03207301
     atom   35 type  1   force =    -0.00003215    0.00001161  -10.37892098
     atom   36 type  1   force =     0.00000392    0.00002833   -1.23462717
     atom   37 type  1   force =     0.00002943   -0.00003445    1.23466841
     atom   38 type  1   force =     0.00000276   -0.00002022   10.37909937
     atom   39 type  1   force =    -0.00003064    0.00000604    6.03154124
     atom   40 type  1   force =     0.00002212   -0.00002207    8.59564815
     atom   41 type  1   force =     0.00000335   -0.00001695    3.43662144
     atom   42 type  1   force =     0.00001252   -0.00000347   12.55202528
     atom   43 type  1   force =    -0.00000820    0.00000652  -12.55234298
     atom   44 type  1   force =     0.00000335   -0.00000800   -3.43642095
     atom   45 type  1   force =    -0.00003845   -0.00001019   -8.59544769
     atom   46 type  1   force =     0.00001194   -0.00002301   -6.03204801
     atom   47 type  1   force =     0.00000335    0.00000801  -10.37878081
     atom   48 type  1   force =    -0.00005182    0.00000311   -1.23463795
     The core correction contribution to forces
     atom    1 type  1   force =     0.00000000    0.00000000    0.00000000
     atom    2 type  1   force =     0.00000000    0.00000000    0.00000000
     atom    3 type  1   force =     0.00000000    0.00000000    0.00000000
     atom    4 type  1   force =     0.00000000    0.00000000    0.00000000
     atom    5 type  1   force =     0.00000000    0.00000000    0.00000000
     atom    6 type  1   force =     0.00000000    0.00000000    0.00000000
     atom    7 type  1   force =     0.00000000    0.00000000    0.00000000
     atom    8 type  1   force =     0.00000000    0.00000000    0.00000000
     atom    9 type  1   force =     0.00000000    0.00000000    0.00000000
     atom   10 type  1   force =     0.00000000    0.00000000    0.00000000
     atom   11 type  1   force =     0.00000000    0.00000000    0.00000000
     atom   12 type  1   force =     0.00000000    0.00000000    0.00000000
     atom   13 type  1   force =     0.00000000    0.00000000    0.00000000
     atom   14 type  1   force =     0.00000000    0.00000000    0.00000000
     atom   15 type  1   force =     0.00000000    0.00000000    0.00000000
     atom   16 type  1   force =     0.00000000    0.00000000    0.00000000
     atom   17 type  1   force =     0.00000000    0.00000000    0.00000000
     atom   18 type  1   force =     0.00000000    0.00000000    0.00000000
     atom   19 type  1   force =     0.00000000    0.00000000    0.00000000
     atom   20 type  1   force =     0.00000000    0.00000000    0.00000000
     atom   21 type  1   force =     0.00000000    0.00000000    0.00000000
     atom   22 type  1   force =     0.00000000    0.00000000    0.00000000
     atom   23 type  1   force =     0.00000000    0.00000000    0.00000000
     atom   24 type  1   force =     0.00000000    0.00000000    0.00000000
     atom   25 type  1   force =     0.00000000    0.00000000    0.00000000
     atom   26 type  1   force =     0.00000000    0.00000000    0.00000000
     atom   27 type  1   force =     0.00000000    0.00000000    0.00000000
     atom   28 type  1   force =     0.00000000    0.00000000    0.00000000
     atom   29 type  1   force =     0.00000000    0.00000000    0.00000000
     atom   30 type  1   force =     0.00000000    0.00000000    0.00000000
     atom   31 type  1   force =     0.00000000    0.00000000    0.00000000
     atom   32 type  1   force =     0.00000000    0.00000000    0.00000000
     atom   33 type  1   force =     0.00000000    0.00000000    0.00000000
     atom   34 type  1   force =     0.00000000    0.00000000    0.00000000
     atom   35 type  1   force =     0.00000000    0.00000000    0.00000000
     atom   36 type  1   force =     0.00000000    0.00000000    0.00000000
     atom   37 type  1   force =     0.00000000    0.00000000    0.00000000
     atom   38 type  1   force =     0.00000000    0.00000000    0.00000000
     atom   39 type  1   force =     0.00000000    0.00000000    0.00000000
     atom   40 type  1   force =     0.00000000    0.00000000    0.00000000
     atom   41 type  1   force =     0.00000000    0.00000000    0.00000000
     atom   42 type  1   force =     0.00000000    0.00000000    0.00000000
     atom   43 type  1   force =     0.00000000    0.00000000    0.00000000
     atom   44 type  1   force =     0.00000000    0.00000000    0.00000000
     atom   45 type  1   force =     0.00000000    0.00000000    0.00000000
     atom   46 type  1   force =     0.00000000    0.00000000    0.00000000
     atom   47 type  1   force =     0.00000000    0.00000000    0.00000000
     atom   48 type  1   force =     0.00000000    0.00000000    0.00000000
     The Hubbard contrib.    to forces
     atom    1 type  1   force =     0.00000000    0.00000000    0.00000000
     atom    2 type  1   force =     0.00000000    0.00000000    0.00000000
     atom    3 type  1   force =     0.00000000    0.00000000    0.00000000
     atom    4 type  1   force =     0.00000000    0.00000000    0.00000000
     atom    5 type  1   force =     0.00000000    0.00000000    0.00000000
     atom    6 type  1   force =     0.00000000    0.00000000    0.00000000
     atom    7 type  1   force =     0.00000000    0.00000000    0.00000000
     atom    8 type  1   force =     0.00000000    0.00000000    0.00000000
     atom    9 type  1   force =     0.00000000    0.00000000    0.00000000
     atom   10 type  1   force =     0.00000000    0.00000000    0.00000000
     atom   11 type  1   force =     0.00000000    0.00000000    0.00000000
     atom   12 type  1   force =     0.00000000    0.00000000    0.00000000
     atom   13 type  1   force =     0.00000000    0.00000000    0.00000000
     atom   14 type  1   force =     0.00000000    0.00000000    0.00000000
     atom   15 type  1   force =     0.00000000    0.00000000    0.00000000
     atom   16 type  1   force =     0.00000000    0.00000000    0.00000000
     atom   17 type  1   force =     0.00000000    0.00000000    0.00000000
     atom   18 type  1   force =     0.00000000    0.00000000    0.00000000
     atom   19 type  1   force =     0.00000000    0.00000000    0.00000000
     atom   20 type  1   force =     0.00000000    0.00000000    0.00000000
     atom   21 type  1   force =     0.00000000    0.00000000    0.00000000
     atom   22 type  1   force =     0.00000000    0.00000000    0.00000000
     atom   23 type  1   force =     0.00000000    0.00000000    0.00000000
     atom   24 type  1   force =     0.00000000    0.00000000    0.00000000
     atom   25 type  1   force =     0.00000000    0.00000000    0.00000000
     atom   26 type  1   force =     0.00000000    0.00000000    0.00000000
     atom   27 type  1   force =     0.00000000    0.00000000    0.00000000
     atom   28 type  1   force =     0.00000000    0.00000000    0.00000000
     atom   29 type  1   force =     0.00000000    0.00000000    0.00000000
     atom   30 type  1   force =     0.00000000    0.00000000    0.00000000
     atom   31 type  1   force =     0.00000000    0.00000000    0.00000000
     atom   32 type  1   force =     0.00000000    0.00000000    0.00000000
     atom   33 type  1   force =     0.00000000    0.00000000    0.00000000
     atom   34 type  1   force =     0.00000000    0.00000000    0.00000000
     atom   35 type  1   force =     0.00000000    0.00000000    0.00000000
     atom   36 type  1   force =     0.00000000    0.00000000    0.00000000
     atom   37 type  1   force =     0.00000000    0.00000000    0.00000000
     atom   38 type  1   force =     0.00000000    0.00000000    0.00000000
     atom   39 type  1   force =     0.00000000    0.00000000    0.00000000
     atom   40 type  1   force =     0.00000000    0.00000000    0.00000000
     atom   41 type  1   force =     0.00000000    0.00000000    0.00000000
     atom   42 type  1   force =     0.00000000    0.00000000    0.00000000
     atom   43 type  1   force =     0.00000000    0.00000000    0.00000000
     atom   44 type  1   force =     0.00000000    0.00000000    0.00000000
     atom   45 type  1   force =     0.00000000    0.00000000    0.00000000
     atom   46 type  1   force =     0.00000000    0.00000000    0.00000000
     atom   47 type  1   force =     0.00000000    0.00000000    0.00000000
     atom   48 type  1   force =     0.00000000    0.00000000    0.00000000
     The SCF correction term to forces
     atom    1 type  1   force =     0.00000000    0.00000003    0.00000010
     atom    2 type  1   force =     0.00000001    0.00000000   -0.00000016
     atom    3 type  1   force =     0.00000000   -0.00000002   -0.00000045
     atom    4 type  1   force =     0.00000000    0.00000001   -0.00000012
     atom    5 type  1   force =     0.00000002    0.00000001   -0.00000017
     atom    6 type  1   force =    -0.00000000   -0.00000000    0.00000024
     atom    7 type  1   force =     0.00000000    0.00000000   -0.00000032
     atom    8 type  1   force =     0.00000000    0.00000001    0.00000065
     atom    9 type  1   force =     0.00000000   -0.00000001    0.00000018
     atom   10 type  1   force =     0.00000000    0.00000002    0.00000068
     atom   11 type  1   force =    -0.00000000    0.00000000    0.00000019
     atom   12 type  1   force =     0.00000000   -0.00000002    0.00000030
     atom   13 type  1   force =    -0.00000002   -0.00000002    0.00000010
     atom   14 type  1   force =     0.00000000   -0.00000001   -0.00000018
     atom   15 type  1   force =     0.00000002    0.00000001   -0.00000046
     atom   16 type  1   force =    -0.00000001   -0.00000001   -0.00000011
     atom   17 type  1   force =     0.00000000   -0.00000001   -0.00000016
     atom   18 type  1   force =     0.00000001   -0.00000000    0.00000023
     atom   19 type  1   force =    -0.00000000   -0.00000001   -0.00000033
     atom   20 type  1   force =     0.00000000   -0.00000001    0.00000066
     atom   21 type  1   force =     0.00000001    0.00000000    0.00000019
     atom   22 type  1   force =    -0.00000001   -0.00000001    0.00000067
     atom   23 type  1   force =    -0.00000000   -0.00000000    0.00000018
     atom   24 type  1   force =     0.00000003    0.00000001    0.00000031
     atom   25 type  1   force =     0.00000000    0.00000001    0.00000010
     atom   26 type  1   force =    -0.00000001    0.00000000   -0.00000016
     atom   27 type  1   force =     0.00000000    0.00000001   -0.00000045
     atom   28 type  1   force =    -0.00000000    0.00000000   -0.00000011
     atom   29 type  1   force =    -0.00000002    0.00000001   -0.00000017
     atom   30 type  1   force =     0.00000000    0.00000001    0.00000025
     atom   31 type  1   force =    -0.00000000   -0.00000000   -0.00000032
     atom   32 type  1   force =    -0.00000000    0.00000001    0.00000065
     atom   33 type  1   force =     0.00000000    0.00000000    0.00000018
     atom   34 type  1   force =     0.00000000    0.00000000    0.00000066
     atom   35 type  1   force =     0.00000000    0.00000000    0.00000019
     atom   36 type  1   force =     0.00000000    0.00000001    0.00000030
     atom   37 type  1   force =     0.00000002   -0.00000002    0.00000010
     atom   38 type  1   force =     0.00000000    0.00000000   -0.00000017
     atom   39 type  1   force =    -0.00000002    0.00000001   -0.00000046
     atom   40 type  1   force =     0.00000001   -0.00000001   -0.00000011
     atom   41 type  1   force =    -0.00000000    0.00000000   -0.00000017
     atom   42 type  1   force =    -0.00000001   -0.00000000    0.00000023
     atom   43 type  1   force =     0.00000000   -0.00000001   -0.00000033
     atom   44 type  1   force =     0.00000000   -0.00000000    0.00000065
     atom   45 type  1   force =    -0.00000001    0.00000000    0.00000019
     atom   46 type  1   force =     0.00000001   -0.00000001    0.00000067
     atom   47 type  1   force =    -0.00000000   -0.00000000    0.00000019
     atom   48 type  1   force =    -0.00000003    0.00000001    0.00000031

     Total force =     0.000550     Total SCF correction =     0.000002
     Energy error            =      7.4E-06 Ry
     Gradient error          =      1.5E-04 Ry/Bohr

     bfgs converged in  23 scf cycles and  22 bfgs steps
     (criteria: energy <  1.0E-05 Ry, force <  3.9E-04 Ry/Bohr)

     End of BFGS Geometry Optimization

     Final energy             =    -721.7225959191 Ry

     File ./Li/Lithium.bfgs deleted, as requested
Begin final coordinates

ATOMIC_POSITIONS (angstrom)
Li              -0.0000000100        0.0000257901       25.0865827734
Li               2.4290249780        1.4024513474       21.3123383313
Li               4.8580444100        2.8048062367       23.0541440153
Li               0.0000000100        0.0000539289       22.0560110234
Li               2.4290279286        1.4024250292       24.1578085527
Li               4.8580445000        2.8048434549       20.0534986211
Li               0.0000000000       -0.0000775706       31.1537164937
Li               2.4290367064        1.4023899155       27.0492845556
Li               4.8580444100        2.8047430723       29.1507843709
Li              -0.0000000100       -0.0000153871       28.1530924573
Li               2.4290373249        1.4023691371       29.8944428803
Li               4.8580444200        2.8047694956       26.1204645578
Li               2.4290127881        4.2071827079       25.0865731418
Li               4.8580443900        5.6096168729       21.3123300649
Li               7.2870860522        7.0120179976       23.0541375367
Li               2.4290102741        4.2072239072       22.0559970764
Li               4.8580444100        5.6095893924       24.1577872411
Li               7.2870368212        7.0120432571       20.0535115303
Li               2.4290247437        4.2071775561       31.1537087308
Li               4.8580444000        5.6095460661       27.0492638784
Li               7.2870834480        7.0119468621       29.1507808472
Li               2.4290159279        4.2071470506       28.1530840170
Li               4.8580444000        5.6095224783       29.8944072418
Li               7.2870875810        7.0119786960       26.1204550551
Li               4.8580444000        0.0000117176       25.0865863270
Li               7.2870638420        1.4024513274       21.3123384813
Li               9.7160888200        2.8048280033       23.0541328831
Li               4.8580443900        0.0000402742       22.0560158108
Li               7.2870608914        1.4024250292       24.1578086327
Li               9.7160887400        2.8048087143       20.0534981446
Li               4.8580444000       -0.0000770608       31.1537209660
Li               7.2870521136        1.4023899155       27.0492846056
Li               9.7160888300        2.8047593563       29.1507709061
Li               4.8580444000       -0.0000216272       28.1530916459
Li               7.2870514951        1.4023691271       29.8944429203
Li               9.7160888200        2.8047970018       26.1204439142
Li               7.2870760220        4.2071827179       25.0865731418
Li               9.7160888400        5.6096216916       21.3122907802
Li              12.1450915978        7.0120180076       23.0541375467
Li               7.2870785359        4.2072239272       22.0559970864
Li               9.7160888300        5.6095935519       24.1577633651
Li              12.1451408288        7.0120433671       20.0535115403
Li               7.2870640663        4.2071775661       31.1537087208
Li               9.7160888300        5.6095646091       27.0492378236
Li              12.1450942021        7.0119468621       29.1507808472
Li               7.2870728921        4.2071470506       28.1530840070
Li               9.7160888300        5.6095363681       29.8943804323
Li              12.1450900790        7.0119787060       26.1204550551
End final coordinates



     Writing all to output data dir ./Li/Lithium.save/ :
     XML data file
     init_run     :     27.94s CPU     36.31s WALL (       1 calls)
     electrons    :  21708.33s CPU  25204.68s WALL (      23 calls)
     update_pot   :      5.05s CPU      6.00s WALL (      22 calls)
     forces       :   2034.05s CPU   2106.26s WALL (      23 calls)

     Called by init_run:
     wfcinit      :      2.81s CPU      3.25s WALL (       1 calls)
     wfcinit:wfcr :      2.54s CPU      2.97s WALL (       8 calls)
     potinit      :      1.05s CPU      1.16s WALL (       1 calls)
     hinit0       :      7.86s CPU      8.94s WALL (       1 calls)

     Called by electrons:
     c_bands      :  13588.74s CPU  15871.58s WALL (     618 calls)
     sum_band     :    845.64s CPU   1058.90s WALL (     618 calls)
     v_of_rho     :    108.72s CPU    127.05s WALL (     619 calls)
     v_h          :      8.09s CPU      9.93s WALL (     619 calls)
     v_xc         :    100.61s CPU    117.10s WALL (     619 calls)
     newd         :     49.85s CPU     67.67s WALL (     619 calls)
     PAW_pot      :      6.67s CPU      9.22s WALL (     641 calls)
     mix_rho      :    248.85s CPU    305.05s WALL (     618 calls)

     Called by c_bands:
     init_us_2    :    193.61s CPU    195.12s WALL (   10256 calls)
     cegterg      :  12995.43s CPU  14528.98s WALL (    6260 calls)

     Called by sum_band:
     sum_band:wei :      0.86s CPU      1.04s WALL (     618 calls)
     sum_band:loo :    765.85s CPU    899.45s WALL (     618 calls)
     sum_band:buf :     19.21s CPU     19.39s WALL (    4944 calls)
     sum_band:ini :     94.43s CPU     94.77s WALL (    4944 calls)
     sum_band:cal :    154.50s CPU    163.79s WALL (    5120 calls)
     sum_band:bec :      1.29s CPU      1.39s WALL (    5120 calls)
     addusdens    :     31.34s CPU     49.39s WALL (     618 calls)
                                        0.00s GPU  (     618 calls)
     addusd:skk   :      3.69s CPU     13.50s WALL (     618 calls)
                                        0.00s GPU  (     618 calls)

     Called by *egterg:
     cdiaghg      :   3859.46s CPU   3999.96s WALL (   88649 calls)
     cegterg:over :    903.97s CPU    970.31s WALL (   82854 calls)
     cegterg:upda :    801.59s CPU    820.46s WALL (   82854 calls)
     cegterg:last :    270.45s CPU    271.02s WALL (    7708 calls)
     h_psi        :   6061.62s CPU   7290.02s WALL (   89122 calls)
     s_psi        :    828.15s CPU    835.55s WALL (   89122 calls)
     g_psi        :      9.62s CPU     10.26s WALL (   82854 calls)

     Called by h_psi:
     h_psi:calbec :   1000.92s CPU   1077.15s WALL (   89122 calls)
     vloc_psi     :   4184.17s CPU   5302.66s WALL (   89122 calls)
                                        0.00s GPU  (   89122 calls)
     add_vuspsi   :    836.67s CPU    841.30s WALL (   89122 calls)

     General routines
     calbec       :   1173.55s CPU   1260.33s WALL (   94978 calls)
     fft          :     67.53s CPU     92.73s WALL (    8091 calls)
     ffts         :    117.41s CPU    154.00s WALL (   71716 calls)
     fftw         :   4351.10s CPU   5515.26s WALL ( 5161412 calls)
     interpolate  :      8.26s CPU      9.93s WALL (     619 calls)

     Parallel routines

     PAW routines
     PAW_pot      :      6.67s CPU      9.22s WALL (     641 calls)
     PAW_symme    :      0.30s CPU      0.37s WALL (    1259 calls)

     Environ routines

     PWSCF        :      6h43m CPU      7h43m WALL


   This run was terminated on:  18:29:24   2Jan2025            

=------------------------------------------------------------------------------=
   JOB DONE.
=------------------------------------------------------------------------------=
